TITLE = "TIME = 1" 
VARIABLES = "x", "y", "z" 
ZONE T = "TRIANGLES", N=500, E=996, F=FEPOINT, ET=TRIANGLE 
-3.424999 -0.855454 2.257396 
-1.484919 0.665606 -3.151304 
1.636841 -0.848154 -0.458954 
3.732041 0.187906 -1.319734 
-1.756719 0.682006 0.807596 
0.911641 -0.828054 3.040696 
-0.218059 -0.489374 -3.806524 
-1.078099 0.891706 -2.420454 
-3.338019 0.263706 1.386896 
2.931841 1.447006 1.793796 
-1.796229 0.715706 1.214996 
2.421641 1.454706 0.904796 
-0.204659 0.658506 3.627796 
-2.160579 -0.044274 3.331996 
0.495541 -0.380754 -3.778464 
0.053641 1.122906 -2.441584 
-1.962639 -1.126464 3.026496 
0.009941 1.061706 2.921296 
0.252541 0.849906 0.570996 
-1.675219 -1.336964 2.454096 
0.409141 0.968806 -1.146214 
2.016341 1.414006 -2.211994 
-1.008069 -1.305914 1.804096 
-2.530049 0.495106 2.133796 
2.489541 0.835106 -3.168524 
-1.025719 -1.208374 -2.156554 
0.768841 -0.904814 -2.371244 
3.327941 -0.212814 1.173396 
-0.179759 0.895606 -1.223224 
2.897641 -0.330874 -1.827444 
0.013941 -0.720894 -3.509614 
-1.960699 -1.392874 1.492296 
-2.685229 0.550306 -0.706694 
-2.297709 0.619406 0.586196 
-3.521319 -0.083864 1.833196 
-2.201219 -0.828584 -3.217494 
-0.360359 -0.889074 3.534896 
3.468741 -0.190594 0.697996 
-0.013059 1.067406 -2.013034 
-2.036049 0.250906 3.181796 
-3.022249 0.471206 -0.260454 
-3.295369 -0.809574 -2.371464 
-1.521199 0.796606 2.329096 
0.574041 -0.871424 -2.850944 
1.364141 -0.949124 1.757796 
-3.098809 -1.382564 1.671896 
0.341441 -0.982094 -0.316984 
3.380241 0.552906 2.256096 
-1.214439 0.759306 -1.130544 
1.671941 1.292106 -2.835764 
2.491941 -0.394084 -2.298934 
2.029841 -0.587094 -2.285774 
-2.777879 -0.951204 -2.762034 
0.566441 -0.961874 -1.878424 
3.446041 0.698506 -2.345714 
-3.547709 -0.450094 2.114896 
-2.336589 0.629806 1.022096 
0.848541 1.224606 2.076096 
1.314241 1.287706 2.779996 
-2.709559 -1.280744 -2.224514 
3.367141 0.017976 -1.816064 
3.232341 0.051706 2.114896 
0.541141 -0.869594 3.255796 
2.128541 -0.497124 2.652896 
-0.200059 -1.053504 3.208996 
-3.756499 0.066606 0.776996 
-3.967359 -1.328364 -0.088464 
-1.813299 0.726006 -1.791184 
3.796541 1.269606 1.178996 
1.059441 -0.933104 -0.369634 
0.764641 -0.181114 3.786496 
3.614641 0.458406 1.807496 
0.174741 -1.149784 2.131896 
1.279841 -0.896984 -0.835184 
-0.483759 0.750706 -0.474934 
1.634441 -0.617364 2.942196 
1.827941 -0.867034 1.017696 
3.867841 0.122106 0.346746 
0.176841 1.027506 1.681196 
2.225041 1.175706 2.845196 
-2.500429 -1.389734 0.049896 
-2.051029 0.619206 2.480296 
-3.125099 -0.430314 2.663296 
-0.736519 -1.247034 1.423396 
1.188141 -0.197534 -3.677924 
1.832341 -0.803304 1.991596 
0.211041 1.027506 -1.579384 
-3.254559 0.137506 -1.890674 
-0.771749 0.856406 1.552396 
4.013141 1.273606 0.476596 
-2.140089 0.548706 -2.465164 
-0.101059 0.185806 -4.007984 
-2.145699 0.432206 2.838696 
-0.124659 -1.003264 -2.836324 
-3.656639 -1.327274 -1.205834 
1.990941 0.889406 3.301896 
-3.563009 -1.078494 -1.807824 
3.114041 -0.382604 -0.930404 
-2.629559 -1.438624 -1.052814 
0.668341 -0.484874 3.660796 
2.528741 1.352506 2.330696 
3.056941 -0.458614 -0.045094 
-2.171369 -1.329874 0.457096 
-0.542059 -1.084944 -0.932734 
-3.823749 -0.821974 1.650896 
0.440041 -0.998044 -1.463874 
-2.106999 0.624406 -0.558624 
1.826441 0.404306 3.518896 
3.806941 1.402606 -0.673144 
-0.175859 -1.177544 1.418596 
-0.430259 -0.984474 -3.124334 
-1.429589 0.105206 -3.781744 
2.318241 -0.226994 2.950596 
0.988841 -0.551814 3.477596 
-3.672659 0.131006 -0.855224 
3.800141 0.181506 0.958096 
-1.200429 0.745406 1.081696 
-0.132059 1.001306 -3.235794 
2.477541 1.434306 0.434786 
1.191441 -0.736104 -2.760274 
-4.140549 -0.733584 -0.846874 
-3.094119 -1.123994 -2.225014 
-3.149999 -0.062234 2.407796 
-1.158149 -1.072274 -3.039524 
-0.400659 -1.241414 1.903496 
1.400641 -0.174024 3.597496 
-1.630609 0.521006 3.115196 
-1.910689 0.640406 0.362426 
2.543641 -0.179114 -2.735614 
1.308541 -0.967644 1.277396 
-1.093769 -1.170714 -1.120094 
-2.038329 0.620406 -0.058894 
-3.683249 -0.062744 -1.421644 
3.818441 0.036916 -0.292334 
-0.993219 -0.522244 3.780696 
-2.148329 -1.325934 -2.178484 
2.447041 1.396806 -0.113854 
-3.777879 -1.387444 0.533296 
-0.112359 -1.087874 0.573196 
1.377841 1.272306 1.635396 
1.254941 0.151606 3.713996 
0.372641 -1.007944 -1.036354 
0.403441 1.165806 2.515396 
1.230641 -0.844674 2.678496 
3.348241 0.265006 -2.227234 
-2.340539 0.614206 -1.496794 
2.706141 1.026906 2.803596 
-1.531129 0.802406 1.941896 
0.804641 1.121306 -1.501914 
0.059541 0.809706 -0.311584 
1.451341 -0.739234 -2.431744 
0.343741 0.558806 -3.900584 
-2.072989 0.334706 -3.202074 
-1.751489 -1.001144 -3.138244 
2.893641 0.571106 -2.934174 
1.919241 1.291906 0.708896 
-3.474459 -1.394114 1.127496 
0.477941 0.873206 -3.684324 
1.020041 0.816806 -3.717124 
-1.097129 -1.220604 1.032496 
-3.003429 -1.491814 0.041216 
-0.507559 -0.220114 -3.970844 
-0.871339 0.908506 -1.824914 
-1.002469 0.877506 -2.880294 
-4.003789 -0.252654 -0.874304 
1.928341 -0.505854 -2.700694 
-4.185099 -0.475784 -0.280294 
2.133041 1.318306 -0.575044 
-1.046039 0.694406 3.191796 
-3.890309 -1.158434 1.104596 
2.113641 1.121406 -3.070624 
-2.010099 -1.292954 -0.216314 
1.987941 -0.788144 -0.140574 
-1.267489 0.847406 -2.042934 
1.081541 -0.900484 -1.586604 
1.738041 -0.756064 2.435396 
-0.069359 0.820406 0.927096 
-0.635559 0.800206 1.127196 
2.931141 0.143506 2.623996 
-4.225549 -0.669494 0.371026 
-0.338759 0.966206 -1.677904 
3.366541 -0.280934 -0.452624 
-1.410509 -1.305514 1.425996 
0.167541 1.102406 2.105496 
-2.300829 0.579706 -1.995564 
1.544641 -0.527864 -2.984594 
-1.480049 -1.367304 2.012496 
1.878641 -0.009994 -3.437454 
-1.177279 -1.306154 2.668896 
-0.553259 -1.221724 2.822196 
1.621241 1.165206 -0.259554 
0.955141 -0.677624 -3.163504 
0.479541 1.086106 -3.276734 
1.177041 -0.857644 -2.034864 
-2.630079 -0.422604 3.087996 
3.196841 -0.183384 1.661096 
-0.283959 -1.216724 2.424996 
-0.107759 -1.058054 -1.231574 
2.249141 1.312206 -2.593074 
0.830641 -1.040704 1.520796 
0.576841 -1.023904 0.578496 
1.423641 1.337406 -2.343334 
-0.730489 0.730806 0.734796 
0.769941 0.229206 3.836296 
4.100741 1.182206 -0.238214 
2.089241 0.092906 3.337096 
-0.763159 0.136706 -3.966944 
2.048641 -0.227544 -3.081924 
-3.669929 0.168106 0.252466 
0.140141 -1.084624 2.934796 
0.851241 0.607406 3.712096 
3.700541 0.473606 -1.803374 
-2.468259 -0.464164 -3.254234 
-0.203359 0.903606 1.386696 
-0.643559 -0.829614 -3.468714 
1.614941 1.173406 0.307636 
1.392641 0.580206 3.626796 
-2.505129 0.283706 -2.756974 
0.253041 -1.109694 2.506596 
3.828141 0.886106 -1.663004 
1.044541 1.128806 -3.297774 
0.181941 0.250406 3.905496 
1.562941 1.190006 -0.810124 
0.781841 -1.043654 1.933696 
-3.185429 0.424706 0.220286 
-3.531809 -1.195284 1.705096 
-2.097159 -1.340254 -0.863994 
-1.135099 -1.219464 -1.635044 
-0.228059 0.551806 -3.881094 
-1.908889 -0.349964 -3.592664 
0.218941 -0.982404 -2.523044 
0.260041 -0.803284 3.486996 
-3.861169 -0.444074 1.489996 
2.300241 -0.574664 2.219096 
0.152141 -1.099804 0.946196 
3.145741 -0.413984 0.443116 
3.507441 -0.195284 0.108416 
1.944941 1.339006 -1.191414 
0.712741 1.140906 1.651796 
-2.285379 -1.159364 -2.725134 
1.321641 0.496906 -3.766264 
-0.113859 0.838606 -3.632624 
2.832541 -0.493464 1.442796 
-1.841069 0.723306 1.646096 
-0.459359 1.016406 2.225996 
0.201841 -1.017674 0.189156 
-2.841829 0.421906 -1.719214 
0.231941 -0.095884 -3.976554 
2.697141 1.501506 1.322996 
-1.631849 -0.014764 3.592596 
4.061241 0.948106 0.957796 
1.418341 -0.368324 -3.372364 
2.487241 1.436906 -1.049184 
2.995641 1.236706 2.259996 
2.362241 -0.658334 1.734596 
-1.561139 -1.230494 2.969396 
1.554241 1.240906 1.116496 
2.133941 -0.699834 -1.353124 
0.626741 0.939306 0.855396 
-2.521189 0.573706 -0.265734 
-3.175499 -1.467974 -1.143624 
-2.036329 -0.890544 3.291296 
0.962641 1.060106 -0.985534 
-1.670869 0.685006 -0.876284 
-1.524279 0.747106 -2.679794 
1.228941 -0.958444 0.811796 
2.037241 1.395306 1.342896 
1.108541 1.029206 -0.500484 
-2.722179 -1.445594 0.558096 
1.703441 1.345006 -1.781734 
-2.143929 -1.295104 2.540596 
-1.302389 -1.200624 0.643196 
1.449241 -0.890044 0.039516 
-0.215759 0.355906 3.842396 
-0.920159 -1.124644 3.251996 
0.225241 -1.137294 1.749496 
-0.786199 -1.095824 -0.176074 
-1.303999 0.689606 0.573696 
2.387341 -0.695494 1.207696 
3.616041 -0.063804 -0.868164 
1.275241 -0.915394 2.204296 
1.104941 1.255006 -1.907854 
-2.126609 0.680406 1.985496 
-0.612959 -1.130234 -1.434614 
0.288041 -0.826834 -3.206864 
1.504641 1.081106 -3.301794 
0.956941 1.083106 3.279996 
3.425541 1.292006 1.749896 
-1.562639 0.657506 -0.367044 
-0.385059 0.723606 0.010976 
0.643941 0.357306 -3.944714 
1.143541 1.026006 0.066126 
-3.923099 -0.495494 -1.432014 
2.303941 1.442606 -1.648764 
2.674241 -0.622824 0.391136 
-2.575289 0.574706 0.181276 
2.102141 -0.780244 0.270976 
2.378241 1.455306 1.844496 
-1.409929 -0.961854 3.454296 
4.013241 0.332406 -0.723214 
-1.573919 -1.215954 -0.711444 
3.366141 1.546806 0.229086 
3.014341 1.508506 -0.892014 
-2.636479 -1.351154 2.158996 
0.922241 0.047476 -3.878244 
0.762741 -1.012504 2.373096 
-3.926779 -0.052834 -0.307064 
2.968041 0.646406 2.733196 
3.782941 1.456006 -0.006234 
0.293941 0.980106 3.322096 
0.743841 0.927906 0.369276 
0.353641 -1.106064 1.342896 
0.550941 0.926506 -0.651724 
1.762441 0.858206 -3.461724 
0.785441 -0.965424 0.039136 
-2.446739 -0.783074 3.110596 
-1.761889 -1.299734 0.946196 
-2.697899 -0.063044 -3.002244 
0.640841 -0.980814 2.763096 
-1.050859 -1.134324 0.211156 
3.911441 0.552606 1.280196 
3.353541 1.548406 -0.400284 
-0.360759 0.853606 3.253696 
-0.389559 -1.095464 -2.375984 
-2.230669 0.634006 -1.033524 
-0.163959 -1.039024 -0.132964 
1.953141 1.367106 2.454696 
3.068341 1.251806 -2.229364 
0.992941 1.103506 1.196096 
-0.354459 -1.058014 -0.495984 
-2.665739 0.304606 2.489996 
-0.427759 -1.081724 0.236916 
3.759441 0.923206 1.707396 
2.993841 1.552106 0.718696 
2.296441 -0.743554 0.741996 
-1.763279 -1.196994 -2.678954 
3.417241 1.480306 -1.070794 
1.431641 1.326906 2.206896 
-2.096879 -1.401974 2.006296 
-3.095769 -1.187684 2.249096 
-4.128129 -1.086374 0.486896 
0.675741 -0.955924 -0.695564 
-1.630539 -1.295414 -1.868474 
-0.768859 0.565106 3.506796 
4.012841 0.625006 -1.187824 
-1.592159 -0.658304 -3.554044 
-2.151139 -1.366284 -1.505324 
1.944341 0.534006 -3.505884 
2.740341 1.467306 -0.486764 
-1.790669 0.713506 -1.313474 
-2.856189 0.495806 1.193596 
-0.925189 0.930706 2.507296 
-1.699529 0.733406 -2.239544 
4.207241 0.885506 0.224376 
-0.837619 0.695306 0.283396 
0.104841 -1.031214 -2.123114 
-2.548549 -1.424364 1.589096 
-0.612259 0.793806 -0.936894 
1.131341 -0.948084 0.398946 
-2.658279 -1.417134 -1.649294 
0.653841 1.171006 2.953596 
-4.042969 -0.364854 0.835896 
-3.526489 -1.494984 -0.025274 
2.868441 1.487406 -1.434434 
2.522341 0.143006 -3.086934 
3.510241 1.089206 -2.010794 
2.655341 1.425806 -2.070284 
0.943541 1.250306 2.522996 
2.051841 1.298306 0.066136 
-4.223849 -0.936654 -0.173444 
0.290641 -0.136404 3.874196 
-1.223659 -0.271774 -3.852484 
2.581841 0.234906 2.999296 
2.808341 -0.374994 1.972596 
-2.557319 -1.120344 2.757496 
-3.287539 -1.493654 0.579396 
-0.594659 -0.048564 3.911296 
2.679541 -0.253214 2.470396 
3.700541 1.267106 -1.359364 
-0.959359 0.694006 -0.198754 
4.180941 0.748706 -0.471614 
2.535541 -0.659604 -0.082264 
-3.089509 0.229006 1.982496 
1.731841 -0.727054 -2.039894 
0.752941 1.246206 -2.426534 
-2.794649 0.507006 -1.181084 
-3.928009 -0.950514 -1.345824 
-1.636959 -1.274204 -1.269404 
-1.940279 0.529306 -2.870564 
1.882741 -0.848684 1.494496 
-3.549919 -0.243094 -2.000504 
-0.985279 0.894306 2.008496 
-0.019559 0.850306 -0.771854 
-4.049549 -0.204584 0.297226 
4.087041 0.536406 0.624496 
0.371741 0.972006 1.250196 
-3.046759 0.034546 -2.443624 
-0.719569 -1.137034 0.634596 
-3.158539 -1.349784 -1.706094 
-0.279059 0.747106 0.458496 
-1.316909 0.801306 -1.568304 
2.739641 -0.508704 -1.402154 
4.125641 0.432706 -0.049424 
-2.650109 0.030536 2.922696 
0.728641 -0.572354 -3.501974 
-3.251199 -0.368214 -2.488764 
-1.667539 -1.229094 0.297986 
-3.511899 0.271306 -0.265254 
-1.217199 -0.839184 -3.421624 
1.688541 -0.870954 0.546196 
-2.974609 -0.856614 2.734296 
-0.895229 -0.556384 -3.761854 
2.268441 -0.709414 -0.535614 
-1.094129 0.717706 -0.654994 
-0.452859 -1.158414 1.013596 
-1.450159 0.338706 3.469996 
-4.085079 -0.786084 1.017296 
-2.013369 -0.428744 3.485496 
0.186241 0.812206 0.140706 
3.297341 0.979906 2.281496 
-1.587119 -0.584934 3.599196 
3.576841 0.144706 1.499496 
2.837841 -0.528204 -0.495564 
1.889941 -0.783134 -0.895424 
-1.428079 0.758706 2.798596 
0.046441 -0.556934 3.784296 
-3.684669 -0.679584 -1.936454 
-0.686599 0.914906 2.917896 
-0.347959 1.019106 -2.897304 
-0.755329 0.847706 -1.379134 
3.290941 -0.199454 -1.362574 
-1.419229 0.659306 0.105926 
-1.311779 0.798806 1.546596 
1.666841 1.197906 3.029896 
-2.321029 0.633806 1.482596 
3.287141 1.490906 1.234996 
2.984741 -0.097804 -2.290484 
-2.836459 0.532306 0.656296 
-0.861149 -1.306774 2.294096 
-0.311359 -0.327694 3.905596 
-3.734009 -0.074834 1.271696 
1.872541 1.382106 1.877196 
-1.407059 -1.176224 -0.210924 
-2.367179 -1.400034 1.022796 
1.364841 1.219006 -1.359284 
1.681541 -0.782554 -1.677954 
-0.059659 -1.061814 -1.689014 
2.290341 0.381006 -3.348324 
0.475541 0.734206 3.681596 
-4.023649 -1.188844 -0.711754 
-0.577459 1.001106 -2.162764 
1.243741 1.071406 0.684396 
2.914741 -0.510524 0.930496 
0.902341 -0.944574 -1.144034 
-0.839749 0.521606 -3.775084 
4.048341 1.041606 -0.934924 
-0.546859 1.000206 -2.571354 
1.303541 0.921306 3.446996 
2.932241 1.521106 0.098186 
2.429641 0.627306 3.172496 
2.306841 -0.595294 -1.818344 
-0.992569 -1.123874 -0.610844 
1.003941 1.263606 -2.859874 
3.594241 1.493206 0.682696 
-3.338079 0.342506 0.779696 
3.029841 0.258606 -2.684064 
2.654641 1.184106 -2.680514 
-0.231759 1.062706 2.546896 
-0.821239 -1.130474 -2.681534 
-1.402569 0.509406 -3.546474 
-1.452419 -1.244514 -2.433904 
-0.661849 0.763206 -3.535814 
-3.107039 -1.510414 -0.552684 
1.605141 0.186106 -3.659124 
-3.223199 0.382406 -0.773184 
3.076441 0.948906 -2.630754 
-2.743569 0.480606 1.693896 
-2.588259 -1.436754 -0.474874 
-3.638209 -1.458764 -0.615664 
-2.727689 0.347506 -2.256804 
0.030141 -1.025324 -0.732464 
-1.283989 -0.180894 3.756196 
-3.285119 0.273906 -1.328174 
-0.357559 0.968406 1.837296 
-2.064339 0.056406 -3.468924 
-0.845689 0.842506 -3.252574 
1.527441 -0.844614 -1.273824 
-0.703919 -0.773084 3.688796 
2.527141 -0.614204 -0.945414 
-0.561259 -1.137704 -1.919154 
1.234441 -0.629994 3.225896 
3.253041 1.394206 -1.693584 
0.767641 -1.038624 1.048796 
0.639041 0.907006 -0.173444 
-2.963859 -1.458584 1.104196 
1.736241 -0.330294 3.299396 
-0.916819 0.269506 3.752496 
-2.924189 -0.517674 -2.831784 
0.530241 1.155206 -1.994664 
0.333941 1.167606 -2.848074 
271 375 304 
105 56 233 
340 226 46 
411 375 316 
105 233 417 
233 56 35 
331 123 404 
411 83 1 
56 1 83 
482 418 421 
340 46 304 
340 304 375 
417 233 362 
123 35 56 
35 123 383 
170 226 105 
105 417 170 
331 404 93 
316 195 411 
17 262 375 
418 316 262 
271 17 375 
20 271 339 
421 262 299 
262 421 418 
441 66 362 
441 362 233 
233 35 441 
93 82 331 
46 495 357 
357 304 46 
339 304 357 
269 495 376 
362 394 180 
226 170 157 
376 495 157 
157 46 226 
157 495 46 
341 170 417 
83 404 123 
83 411 195 
195 316 418 
482 250 418 
195 14 404 
404 83 195 
35 9 441 
394 362 66 
24 331 82 
444 357 495 
495 269 444 
307 167 394 
376 157 138 
138 157 170 
170 341 138 
304 339 271 
66 441 9 
24 383 331 
123 331 383 
24 82 283 
82 93 425 
416 127 40 
40 93 404 
376 138 363 
339 357 32 
357 444 32 
269 81 103 
103 444 269 
67 341 370 
341 417 180 
362 180 417 
167 180 394 
20 187 189 
477 383 24 
24 283 477 
435 351 477 
477 283 435 
127 169 425 
43 283 82 
13 344 497 
93 40 127 
344 169 416 
344 13 323 
180 370 341 
67 138 341 
67 363 138 
479 67 450 
339 187 20 
317 183 32 
439 189 187 
339 32 187 
183 23 187 
439 187 23 
317 32 444 
444 103 317 
187 32 183 
160 183 317 
407 103 172 
376 363 161 
161 269 376 
161 81 269 
41 33 475 
33 41 260 
307 408 115 
97 95 387 
439 125 197 
428 468 352 
296 260 41 
107 33 260 
260 296 132 
325 33 107 
289 432 380 
57 351 435 
435 11 57 
57 5 34 
128 34 5 
438 465 351 
438 34 296 
351 57 438 
438 57 34 
209 307 394 
209 408 307 
394 66 209 
66 465 209 
383 477 9 
383 9 35 
9 465 66 
351 465 9 
9 477 351 
127 416 169 
428 352 425 
127 425 93 
428 425 169 
363 67 479 
450 95 479 
370 450 67 
398 320 332 
103 407 317 
160 317 272 
272 317 407 
443 320 407 
320 398 272 
160 272 398 
31 405 285 
54 27 194 
44 120 27 
225 41 408 
408 209 225 
225 209 465 
296 41 225 
225 438 296 
465 438 225 
167 307 165 
307 115 165 
122 42 53 
42 122 97 
450 387 95 
387 450 121 
421 135 482 
421 299 135 
323 18 428 
143 184 468 
392 352 245 
43 425 352 
82 425 43 
115 133 165 
293 165 133 
264 325 107 
107 289 264 
33 325 386 
146 386 325 
185 247 146 
386 146 247 
260 132 107 
289 107 132 
132 296 128 
34 128 296 
128 432 132 
432 289 132 
185 91 480 
353 265 91 
250 497 416 
377 497 482 
40 14 416 
250 482 497 
40 404 14 
250 416 14 
195 418 14 
14 418 250 
377 482 135 
231 44 27 
186 192 252 
192 285 405 
120 192 186 
120 166 151 
208 186 252 
192 120 44 
473 161 363 
363 479 473 
95 97 399 
399 97 122 
427 293 391 
391 133 88 
387 121 293 
165 293 121 
370 121 450 
167 165 121 
121 370 167 
180 167 370 
17 256 299 
316 375 262 
17 271 256 
20 256 271 
194 151 384 
277 332 320 
160 398 415 
415 398 139 
332 139 398 
276 200 224 
125 276 73 
173 3 413 
197 73 219 
73 197 125 
197 190 439 
189 439 190 
219 210 197 
65 190 210 
18 310 361 
287 361 310 
148 43 392 
89 433 392 
19 400 177 
19 177 259 
117 433 89 
430 401 49 
380 290 75 
58 239 184 
79 484 184 
143 468 18 
245 468 184 
79 184 239 
184 143 58 
442 267 140 
119 156 12 
12 156 267 
239 58 140 
257 140 267 
216 452 156 
214 396 177 
239 396 79 
214 79 396 
484 79 214 
213 230 36 
318 485 213 
406 318 498 
133 483 88 
475 483 115 
285 111 31 
94 285 44 
472 455 470 
230 112 372 
2 486 470 
265 164 2 
185 480 247 
247 88 483 
88 247 480 
480 91 218 
486 2 164 
112 470 455 
486 118 472 
61 437 145 
30 437 61 
325 264 350 
49 401 350 
350 264 49 
414 289 380 
414 264 289 
49 264 414 
380 75 414 
164 8 457 
488 135 299 
426 440 488 
135 488 440 
186 166 120 
52 151 166 
384 151 52 
320 443 277 
81 172 103 
95 399 261 
261 479 95 
261 473 479 
133 391 293 
427 387 293 
427 42 97 
97 387 427 
406 391 397 
498 42 406 
213 498 318 
391 406 427 
42 427 406 
406 397 318 
88 397 391 
306 224 281 
454 175 487 
258 424 487 
312 200 276 
139 332 246 
37 65 232 
319 6 210 
210 63 65 
37 275 65 
319 210 219 
319 219 306 
219 73 306 
18 361 143 
368 143 361 
368 58 143 
64 234 378 
43 148 283 
435 283 244 
244 283 148 
244 148 433 
244 11 435 
244 433 11 
392 245 484 
184 484 245 
245 352 468 
352 392 43 
392 484 89 
148 392 433 
419 290 400 
400 19 419 
419 19 311 
278 432 128 
178 117 89 
178 214 177 
178 89 214 
484 214 89 
163 430 181 
257 452 329 
329 396 239 
239 140 329 
329 140 257 
396 259 177 
396 329 259 
259 329 452 
311 19 259 
259 452 311 
133 115 483 
475 115 408 
475 386 483 
247 483 386 
386 475 33 
408 41 475 
498 213 53 
498 53 42 
25 476 155 
155 55 466 
286 314 159 
158 159 152 
207 372 112 
112 485 470 
153 470 485 
229 455 242 
472 470 486 
153 485 318 
218 389 153 
397 218 318 
68 146 350 
325 350 146 
68 353 185 
146 68 185 
68 350 401 
49 414 358 
358 414 75 
358 430 49 
29 430 358 
164 265 8 
353 8 265 
118 486 429 
389 91 265 
401 430 163 
29 181 430 
163 451 174 
163 181 451 
416 497 344 
232 426 37 
204 371 71 
377 135 440 
440 426 371 
491 114 63 
17 299 262 
37 488 275 
190 275 189 
189 256 20 
51 30 461 
384 52 461 
462 277 443 
301 462 443 
443 172 301 
272 407 320 
407 172 443 
277 462 330 
360 261 399 
343 347 136 
473 261 99 
99 360 347 
261 360 99 
2 153 389 
389 218 91 
470 153 2 
153 318 218 
218 397 480 
88 480 397 
224 306 73 
243 374 255 
144 6 319 
424 3 74 
74 487 424 
454 487 74 
74 342 454 
74 3 70 
70 342 74 
258 487 446 
194 384 446 
446 175 194 
446 487 175 
160 415 84 
84 183 160 
84 23 183 
326 246 332 
246 201 139 
235 139 201 
488 37 426 
190 197 210 
299 275 488 
275 299 256 
190 65 275 
256 189 275 
58 338 140 
368 338 58 
442 140 338 
141 217 204 
217 141 108 
76 176 64 
59 287 434 
338 368 59 
449 211 458 
217 458 211 
80 96 147 
373 460 206 
458 217 96 
150 75 290 
290 419 150 
203 278 117 
177 400 203 
203 178 177 
117 178 203 
355 290 380 
400 290 355 
380 432 355 
432 278 355 
355 203 400 
278 203 355 
11 5 57 
5 278 128 
5 11 117 
433 117 11 
117 278 5 
369 156 119 
145 437 466 
448 155 365 
314 348 241 
152 159 291 
389 265 2 
174 451 8 
457 429 164 
429 500 118 
500 429 16 
286 221 50 
457 16 429 
500 463 193 
221 193 463 
472 242 455 
158 242 193 
98 402 431 
30 61 431 
134 237 182 
134 182 280 
174 68 401 
91 185 353 
401 163 174 
457 8 451 
174 353 68 
8 353 174 
371 222 440 
169 344 323 
211 449 222 
274 222 449 
428 169 323 
100 426 232 
232 114 100 
63 232 65 
71 100 126 
496 126 114 
371 204 222 
100 71 426 
211 222 204 
114 126 100 
6 491 63 
232 63 114 
126 141 71 
206 108 126 
491 496 114 
129 437 51 
30 51 437 
365 129 208 
129 51 166 
104 330 462 
332 277 326 
330 326 277 
326 330 47 
106 175 454 
131 462 301 
131 104 462 
412 215 409 
412 7 215 
31 215 7 
215 31 111 
240 60 53 
240 136 60 
136 360 60 
122 53 60 
360 399 60 
122 60 399 
53 36 240 
154 240 36 
36 53 213 
409 154 346 
346 36 230 
36 346 154 
473 99 478 
161 473 478 
81 161 478 
478 172 81 
301 172 227 
227 99 347 
172 478 227 
227 478 99 
493 130 200 
200 312 493 
493 235 201 
312 235 493 
390 130 77 
281 45 86 
86 255 234 
200 130 45 
200 45 224 
45 281 224 
45 130 390 
255 86 390 
390 86 45 
295 297 382 
70 3 273 
70 273 315 
273 3 173 
173 297 273 
273 297 410 
410 359 273 
258 489 424 
424 413 3 
413 424 489 
413 489 423 
413 382 173 
423 382 413 
51 461 52 
489 258 402 
402 461 30 
461 402 258 
258 446 461 
384 461 446 
110 415 235 
110 84 415 
139 235 415 
110 235 312 
47 246 326 
481 47 330 
47 342 70 
481 342 47 
361 59 368 
211 204 217 
361 287 59 
460 96 108 
458 434 287 
96 434 458 
204 71 141 
217 108 96 
374 378 234 
494 419 311 
494 150 419 
21 87 29 
257 267 156 
327 298 442 
298 249 267 
12 267 249 
434 96 80 
460 147 96 
369 119 137 
191 369 168 
257 156 452 
156 369 216 
311 452 292 
216 369 191 
223 238 445 
445 238 270 
367 22 294 
294 270 238 
365 466 129 
437 129 466 
52 166 51 
348 25 448 
448 474 348 
291 241 305 
305 248 291 
152 229 158 
242 158 229 
193 118 500 
242 472 118 
159 158 221 
286 159 221 
118 193 242 
164 429 486 
485 112 230 
412 346 372 
409 346 412 
485 230 213 
436 249 10 
423 489 98 
280 182 98 
98 489 402 
423 98 182 
30 431 402 
98 431 280 
4 431 61 
280 431 4 
377 274 497 
18 323 310 
468 428 18 
222 274 377 
310 13 449 
323 13 310 
71 371 426 
13 497 274 
377 440 222 
274 449 13 
287 449 458 
310 449 287 
194 175 54 
151 194 27 
106 54 175 
198 481 104 
330 104 481 
388 131 301 
388 227 347 
301 227 388 
94 469 111 
111 124 215 
154 409 124 
409 215 124 
230 372 346 
7 412 162 
94 111 285 
279 255 390 
335 279 77 
266 77 130 
201 359 266 
266 359 410 
410 77 266 
266 493 201 
130 493 266 
144 281 176 
63 210 6 
319 306 144 
281 144 306 
237 134 78 
78 38 237 
125 110 276 
23 125 439 
23 84 125 
224 73 276 
312 276 110 
84 110 125 
246 47 315 
315 359 201 
201 246 315 
359 315 273 
315 47 70 
147 460 308 
108 206 460 
113 206 496 
141 126 108 
496 491 76 
496 76 113 
196 422 62 
179 378 62 
181 29 87 
149 87 21 
499 39 87 
39 451 181 
457 451 16 
39 16 451 
55 155 476 
145 466 55 
467 25 171 
155 448 25 
366 476 328 
314 171 25 
199 467 171 
348 314 25 
241 159 314 
474 305 241 
181 87 39 
282 499 149 
385 16 499 
39 499 16 
50 171 286 
80 327 434 
338 59 327 
442 338 327 
267 442 298 
59 434 327 
101 327 80 
298 327 101 
10 101 254 
101 10 298 
249 298 10 
253 294 238 
137 168 369 
168 223 191 
238 223 168 
168 253 238 
292 216 191 
223 268 191 
292 494 311 
216 292 452 
268 313 494 
282 270 202 
499 282 385 
87 149 499 
270 282 445 
149 445 282 
303 337 364 
364 492 367 
364 253 303 
294 253 364 
466 365 155 
474 448 188 
241 348 474 
207 455 229 
162 92 248 
92 152 291 
207 229 92 
15 405 31 
162 207 92 
31 7 15 
372 207 162 
15 7 248 
248 305 15 
152 92 229 
112 455 207 
372 162 412 
420 333 288 
459 137 119 
334 12 249 
249 436 334 
119 12 334 
334 459 119 
69 333 251 
251 90 69 
251 354 90 
205 90 354 
69 90 464 
55 220 212 
212 145 55 
212 61 145 
212 4 61 
300 134 280 
280 4 300 
481 198 142 
142 342 481 
454 342 142 
142 106 454 
131 388 228 
336 124 471 
124 111 469 
471 469 26 
234 255 374 
255 279 243 
173 382 297 
335 77 410 
390 77 279 
410 297 335 
297 295 335 
281 86 176 
234 176 86 
234 64 176 
176 76 144 
6 76 491 
6 144 76 
38 116 28 
38 78 116 
78 395 116 
72 422 321 
206 113 373 
64 113 76 
126 496 206 
179 373 113 
179 113 378 
64 378 113 
328 492 366 
467 328 476 
55 476 366 
366 220 55 
199 171 50 
476 25 467 
50 463 202 
22 202 270 
202 385 282 
202 22 50 
199 50 22 
463 50 221 
314 286 171 
385 202 463 
193 221 158 
16 385 500 
463 500 385 
263 223 445 
21 313 263 
445 149 263 
149 21 263 
292 191 268 
223 263 268 
268 263 313 
494 292 268 
150 494 313 
150 313 393 
393 358 75 
75 150 393 
21 29 393 
358 393 29 
393 313 21 
270 294 22 
294 364 367 
328 367 492 
199 367 467 
328 467 367 
22 367 199 
92 291 248 
305 474 85 
373 308 460 
48 308 179 
69 288 333 
288 436 10 
288 69 436 
464 436 69 
137 459 349 
253 168 349 
137 349 168 
303 253 349 
109 205 456 
90 205 309 
459 334 302 
302 334 464 
436 464 334 
4 212 345 
345 300 4 
345 220 456 
345 212 220 
131 228 284 
198 104 284 
131 284 104 
347 343 388 
360 136 347 
228 388 343 
469 94 324 
151 27 120 
231 27 356 
28 196 243 
378 374 62 
72 62 422 
196 62 374 
102 295 382 
182 102 423 
102 182 237 
382 423 102 
453 335 295 
453 243 279 
279 335 453 
300 345 381 
381 345 456 
381 205 354 
456 205 381 
134 300 403 
403 78 134 
403 395 78 
300 381 403 
354 395 403 
403 381 354 
321 333 72 
116 321 422 
321 116 395 
321 251 333 
354 251 395 
321 395 251 
379 366 492 
379 109 456 
456 220 379 
220 366 379 
188 252 85 
365 188 448 
405 252 192 
166 208 129 
192 44 285 
15 85 405 
252 188 208 
166 186 208 
373 179 308 
420 308 48 
48 62 72 
179 62 48 
72 333 48 
333 420 48 
308 420 147 
420 288 254 
10 254 288 
254 101 147 
80 147 101 
254 147 420 
109 309 205 
302 464 309 
90 309 464 
356 54 447 
54 356 27 
228 343 26 
243 453 28 
374 243 196 
422 28 116 
422 196 28 
295 102 236 
236 453 295 
237 38 236 
236 102 237 
236 38 453 
28 453 38 
188 85 474 
252 405 85 
241 291 159 
365 208 188 
85 15 305 
162 248 7 
302 309 322 
303 349 322 
322 349 459 
459 302 322 
309 109 322 
337 379 492 
109 379 337 
337 322 109 
492 364 337 
303 322 337 
142 198 106 
106 447 54 
447 106 198 
284 447 198 
490 284 228 
228 26 490 
490 447 284 
356 447 490 
44 231 94 
26 324 490 
324 26 469 
231 356 324 
231 324 94 
356 490 324 
336 471 136 
343 136 471 
26 343 471 
154 124 336 
336 136 240 
240 154 336 
469 471 124 
123 56 83 
226 1 105 
56 105 1 
1 226 340 
1 340 411 
375 411 340 
TITLE = "TIME = 2" 
VARIABLES = "x", "y", "z" 
ZONE T = "TRIANGLES", N=500, E=996, F=FEPOINT, ET=TRIANGLE 
-3.433058 -0.772915 2.254320 
-1.380118 0.726345 -3.145000 
1.505322 -0.871665 -0.456750 
3.663122 0.125045 -1.325670 
-1.640698 0.701545 0.846120 
0.851422 -0.869945 3.013520 
-0.228778 -0.493785 -3.840830 
-0.987798 0.910845 -2.409830 
-3.207808 0.339345 1.366920 
3.016522 1.438545 1.806720 
-1.660308 0.739345 1.262520 
2.522322 1.463145 0.934820 
-0.180978 0.684945 3.638820 
-2.116658 0.013085 3.318020 
0.455622 -0.397265 -3.802930 
0.166222 1.159945 -2.445980 
-2.046448 -1.105045 3.047020 
0.078422 1.077145 2.931820 
0.379422 0.855245 0.572420 
-1.782948 -1.333535 2.490420 
0.513522 0.984245 -1.129250 
2.111122 1.403445 -2.236600 
-1.126298 -1.346575 1.858520 
-2.410298 0.550145 2.127820 
2.489822 0.808145 -3.199480 
-1.105018 -1.227845 -2.173750 
0.687522 -0.936085 -2.363000 
3.206822 -0.262145 1.168520 
-0.060178 0.917845 -1.236470 
2.811022 -0.373115 -1.832950 
-0.023878 -0.747365 -3.542250 
-2.060918 -1.399575 1.521120 
-2.543468 0.588245 -0.708980 
-2.165128 0.643245 0.569020 
-3.411468 0.024115 1.821920 
-2.241338 -0.778145 -3.237250 
-0.418478 -0.907595 3.556920 
3.342422 -0.226135 0.700120 
0.074822 1.071745 -2.015730 
-1.955108 0.315245 3.155520 
-2.849178 0.530245 -0.253510 
-3.300378 -0.718365 -2.399590 
-1.408538 0.838145 2.329920 
0.505222 -0.898665 -2.852420 
1.250822 -0.977695 1.730520 
-3.173148 -1.378205 1.689820 
0.211022 -1.025075 -0.318930 
3.338122 0.492545 2.287120 
-1.083638 0.780545 -1.117340 
1.699922 1.304645 -2.832840 
2.413822 -0.444225 -2.308370 
1.928622 -0.647145 -2.273720 
-2.820458 -0.884795 -2.789210 
0.468422 -0.991615 -1.901710 
3.423822 0.604945 -2.361530 
-3.524558 -0.357455 2.076920 
-2.196888 0.660145 1.017920 
0.963722 1.223345 2.102920 
1.366122 1.255545 2.802420 
-2.773508 -1.241615 -2.258580 
3.287822 -0.048945 -1.815120 
3.124222 -0.020935 2.108120 
0.459122 -0.891115 3.232720 
2.027322 -0.575545 2.649320 
-0.280778 -1.078195 3.220120 
-3.619268 0.146045 0.812220 
-4.019668 -1.261225 -0.101700 
-1.684608 0.730445 -1.779430 
3.836422 1.224745 1.199420 
0.927522 -0.960125 -0.321210 
0.731022 -0.200965 3.804520 
3.555422 0.395445 1.845120 
0.048522 -1.177645 2.103120 
1.148922 -0.906285 -0.815200 
-0.374578 0.758045 -0.468350 
1.558322 -0.669825 2.934320 
1.656322 -0.897855 0.988020 
3.756422 0.055545 0.367120 
0.282722 1.022345 1.686420 
2.276122 1.141745 2.896520 
-2.611818 -1.410765 0.047740 
-1.935788 0.670445 2.471220 
-3.108178 -0.357425 2.638520 
-0.881148 -1.286345 1.431720 
1.154622 -0.259655 -3.660820 
1.727722 -0.842955 1.989620 
0.320622 1.044245 -1.570350 
-3.127758 0.203745 -1.895780 
-0.651018 0.881245 1.546320 
4.054622 1.172145 0.497920 
-2.028488 0.618545 -2.457840 
-0.094678 0.187345 -4.019040 
-2.024428 0.496145 2.826620 