# vtk DataFile Version 2.0
UVWP for 3D case1 problem
ASCII

DATASET UNSTRUCTURED_GRID
POINTS 8261 double
  0.000000  0.000000  0.000000
  0.250000  0.000000  0.000000
  0.500000  0.000000  0.000000
  0.750000  0.000000  0.000000
  1.000000  0.000000  0.000000
  1.250000  0.000000  0.000000
  1.500000  0.000000  0.000000
  1.750000  0.000000  0.000000
  2.000000  0.000000  0.000000
  2.250000  0.000000  0.000000
  2.500000  0.000000  0.000000
  2.750000  0.000000  0.000000
  3.000000  0.000000  0.000000
  3.250000  0.000000  0.000000
  3.500000  0.000000  0.000000
  3.750000  0.000000  0.000000
  4.000000  0.000000  0.000000
  4.250000  0.000000  0.000000
  4.500000  0.000000  0.000000
  4.750000  0.000000  0.000000
  5.000000  0.000000  0.000000
  0.000000  0.050000  0.000000
  0.250000  0.050000  0.000000
  0.500000  0.050000  0.000000
  0.750000  0.050000  0.000000
  1.000000  0.050000  0.000000
  1.250000  0.050000  0.000000
  1.500000  0.050000  0.000000
  1.750000  0.050000  0.000000
  2.000000  0.050000  0.000000
  2.250000  0.050000  0.000000
  2.500000  0.050000  0.000000
  2.750000  0.050000  0.000000
  3.000000  0.050000  0.000000
  3.250000  0.050000  0.000000
  3.500000  0.050000  0.000000
  3.750000  0.050000  0.000000
  4.000000  0.050000  0.000000
  4.250000  0.050000  0.000000
  4.500000  0.050000  0.000000
  4.750000  0.050000  0.000000
  5.000000  0.050000  0.000000
  0.000000  0.100000  0.000000
  0.250000  0.100000  0.000000
  0.500000  0.100000  0.000000
  0.750000  0.100000  0.000000
  1.000000  0.100000  0.000000
  1.250000  0.100000  0.000000
  1.500000  0.100000  0.000000
  1.750000  0.100000  0.000000
  2.000000  0.100000  0.000000
  2.250000  0.100000  0.000000
  2.500000  0.100000  0.000000
  2.750000  0.100000  0.000000
  3.000000  0.100000  0.000000
  3.250000  0.100000  0.000000
  3.500000  0.100000  0.000000
  3.750000  0.100000  0.000000
  4.000000  0.100000  0.000000
  4.250000  0.100000  0.000000
  4.500000  0.100000  0.000000
  4.750000  0.100000  0.000000
  5.000000  0.100000  0.000000
  0.000000  0.150000  0.000000
  0.250000  0.150000  0.000000
  0.500000  0.150000  0.000000
  0.750000  0.150000  0.000000
  1.000000  0.150000  0.000000
  1.250000  0.150000  0.000000
  1.500000  0.150000  0.000000
  1.750000  0.150000  0.000000
  2.000000  0.150000  0.000000
  2.250000  0.150000  0.000000
  2.500000  0.150000  0.000000
  2.750000  0.150000  0.000000
  3.000000  0.150000  0.000000
  3.250000  0.150000  0.000000
  3.500000  0.150000  0.000000
  3.750000  0.150000  0.000000
  4.000000  0.150000  0.000000
  4.250000  0.150000  0.000000
  4.500000  0.150000  0.000000
  4.750000  0.150000  0.000000
  5.000000  0.150000  0.000000
  0.000000  0.200000  0.000000
  0.250000  0.200000  0.000000
  0.500000  0.200000  0.000000
  0.750000  0.200000  0.000000
  1.000000  0.200000  0.000000
  1.250000  0.200000  0.000000
  1.500000  0.200000  0.000000
  1.750000  0.200000  0.000000
  2.000000  0.200000  0.000000
  2.250000  0.200000  0.000000
  2.500000  0.200000  0.000000
  2.750000  0.200000  0.000000
  3.000000  0.200000  0.000000
  3.250000  0.200000  0.000000
  3.500000  0.200000  0.000000
  3.750000  0.200000  0.000000
  4.000000  0.200000  0.000000
  4.250000  0.200000  0.000000
  4.500000  0.200000  0.000000
  4.750000  0.200000  0.000000
  5.000000  0.200000  0.000000
  0.000000  0.250000  0.000000
  0.250000  0.250000  0.000000
  0.500000  0.250000  0.000000
  0.750000  0.250000  0.000000
  1.000000  0.250000  0.000000
  1.250000  0.250000  0.000000
  1.500000  0.250000  0.000000
  1.750000  0.250000  0.000000
  2.000000  0.250000  0.000000
  2.250000  0.250000  0.000000
  2.500000  0.250000  0.000000
  2.750000  0.250000  0.000000
  3.000000  0.250000  0.000000
  3.250000  0.250000  0.000000
  3.500000  0.250000  0.000000
  3.750000  0.250000  0.000000
  4.000000  0.250000  0.000000
  4.250000  0.250000  0.000000
  4.500000  0.250000  0.000000
  4.750000  0.250000  0.000000
  5.000000  0.250000  0.000000
  0.000000  0.300000  0.000000
  0.250000  0.300000  0.000000
  0.500000  0.300000  0.000000
  0.750000  0.300000  0.000000
  1.000000  0.300000  0.000000
  1.250000  0.300000  0.000000
  1.500000  0.300000  0.000000
  1.750000  0.300000  0.000000
  2.000000  0.300000  0.000000
  2.250000  0.300000  0.000000
  2.500000  0.300000  0.000000
  2.750000  0.300000  0.000000
  3.000000  0.300000  0.000000
  3.250000  0.300000  0.000000
  3.500000  0.300000  0.000000
  3.750000  0.300000  0.000000
  4.000000  0.300000  0.000000
  4.250000  0.300000  0.000000
  4.500000  0.300000  0.000000
  4.750000  0.300000  0.000000
  5.000000  0.300000  0.000000
  0.000000  0.350000  0.000000
  0.250000  0.350000  0.000000
  0.500000  0.350000  0.000000
  0.750000  0.350000  0.000000
  1.000000  0.350000  0.000000
  1.250000  0.350000  0.000000
  1.500000  0.350000  0.000000
  1.750000  0.350000  0.000000
  2.000000  0.350000  0.000000
  2.250000  0.350000  0.000000
  2.500000  0.350000  0.000000
  2.750000  0.350000  0.000000
  3.000000  0.350000  0.000000
  3.250000  0.350000  0.000000
  3.500000  0.350000  0.000000
  3.750000  0.350000  0.000000
  4.000000  0.350000  0.000000
  4.250000  0.350000  0.000000
  4.500000  0.350000  0.000000
  4.750000  0.350000  0.000000
  5.000000  0.350000  0.000000
  0.000000  0.400000  0.000000
  0.250000  0.400000  0.000000
  0.500000  0.400000  0.000000
  0.750000  0.400000  0.000000
  1.000000  0.400000  0.000000
  1.250000  0.400000  0.000000
  1.500000  0.400000  0.000000
  1.750000  0.400000  0.000000
  2.000000  0.400000  0.000000
  2.250000  0.400000  0.000000
  2.500000  0.400000  0.000000
  2.750000  0.400000  0.000000
  3.000000  0.400000  0.000000
  3.250000  0.400000  0.000000
  3.500000  0.400000  0.000000
  3.750000  0.400000  0.000000
  4.000000  0.400000  0.000000
  4.250000  0.400000  0.000000
  4.500000  0.400000  0.000000
  4.750000  0.400000  0.000000
  5.000000  0.400000  0.000000
  0.000000  0.450000  0.000000
  0.250000  0.450000  0.000000
  0.500000  0.450000  0.000000
  0.750000  0.450000  0.000000
  1.000000  0.450000  0.000000
  1.250000  0.450000  0.000000
  1.500000  0.450000  0.000000
  1.750000  0.450000  0.000000
  2.000000  0.450000  0.000000
  2.250000  0.450000  0.000000
  2.500000  0.450000  0.000000
  2.750000  0.450000  0.000000
  3.000000  0.450000  0.000000
  3.250000  0.450000  0.000000
  3.500000  0.450000  0.000000
  3.750000  0.450000  0.000000
  4.000000  0.450000  0.000000
  4.250000  0.450000  0.000000
  4.500000  0.450000  0.000000
  4.750000  0.450000  0.000000
  5.000000  0.450000  0.000000
  0.000000  0.500000  0.000000
  0.250000  0.500000  0.000000
  0.500000  0.500000  0.000000
  0.750000  0.500000  0.000000
  1.000000  0.500000  0.000000
  1.250000  0.500000  0.000000
  1.500000  0.500000  0.000000
  1.750000  0.500000  0.000000
  2.000000  0.500000  0.000000
  2.250000  0.500000  0.000000
  2.500000  0.500000  0.000000
  2.750000  0.500000  0.000000
  3.000000  0.500000  0.000000
  3.250000  0.500000  0.000000
  3.500000  0.500000  0.000000
  3.750000  0.500000  0.000000
  4.000000  0.500000  0.000000
  4.250000  0.500000  0.000000
  4.500000  0.500000  0.000000
  4.750000  0.500000  0.000000
  5.000000  0.500000  0.000000
  0.000000  0.550000  0.000000
  0.250000  0.550000  0.000000
  0.500000  0.550000  0.000000
  0.750000  0.550000  0.000000
  1.000000  0.550000  0.000000
  1.250000  0.550000  0.000000
  1.500000  0.550000  0.000000
  1.750000  0.550000  0.000000
  2.000000  0.550000  0.000000
  2.250000  0.550000  0.000000
  2.500000  0.550000  0.000000
  2.750000  0.550000  0.000000
  3.000000  0.550000  0.000000
  3.250000  0.550000  0.000000
  3.500000  0.550000  0.000000
  3.750000  0.550000  0.000000
  4.000000  0.550000  0.000000
  4.250000  0.550000  0.000000
  4.500000  0.550000  0.000000
  4.750000  0.550000  0.000000
  5.000000  0.550000  0.000000
  0.000000  0.600000  0.000000
  0.250000  0.600000  0.000000
  0.500000  0.600000  0.000000
  0.750000  0.600000  0.000000
  1.000000  0.600000  0.000000
  1.250000  0.600000  0.000000
  1.500000  0.600000  0.000000
  1.750000  0.600000  0.000000
  2.000000  0.600000  0.000000
  2.250000  0.600000  0.000000
  2.500000  0.600000  0.000000
  2.750000  0.600000  0.000000
  3.000000  0.600000  0.000000
  3.250000  0.600000  0.000000
  3.500000  0.600000  0.000000
  3.750000  0.600000  0.000000
  4.000000  0.600000  0.000000
  4.250000  0.600000  0.000000
  4.500000  0.600000  0.000000
  4.750000  0.600000  0.000000
  5.000000  0.600000  0.000000
  0.000000  0.650000  0.000000
  0.250000  0.650000  0.000000
  0.500000  0.650000  0.000000
  0.750000  0.650000  0.000000
  1.000000  0.650000  0.000000
  1.250000  0.650000  0.000000
  1.500000  0.650000  0.000000
  1.750000  0.650000  0.000000
  2.000000  0.650000  0.000000
  2.250000  0.650000  0.000000
  2.500000  0.650000  0.000000
  2.750000  0.650000  0.000000
  3.000000  0.650000  0.000000
  3.250000  0.650000  0.000000
  3.500000  0.650000  0.000000
  3.750000  0.650000  0.000000
  4.000000  0.650000  0.000000
  4.250000  0.650000  0.000000
  4.500000  0.650000  0.000000
  4.750000  0.650000  0.000000
  5.000000  0.650000  0.000000
  0.000000  0.700000  0.000000
  0.250000  0.700000  0.000000
  0.500000  0.700000  0.000000
  0.750000  0.700000  0.000000
  1.000000  0.700000  0.000000
  1.250000  0.700000  0.000000
  1.500000  0.700000  0.000000
  1.750000  0.700000  0.000000
  2.000000  0.700000  0.000000
  2.250000  0.700000  0.000000
  2.500000  0.700000  0.000000
  2.750000  0.700000  0.000000
  3.000000  0.700000  0.000000
  3.250000  0.700000  0.000000
  3.500000  0.700000  0.000000
  3.750000  0.700000  0.000000
  4.000000  0.700000  0.000000
  4.250000  0.700000  0.000000
  4.500000  0.700000  0.000000
  4.750000  0.700000  0.000000
  5.000000  0.700000  0.000000
  0.000000  0.750000  0.000000
  0.250000  0.750000  0.000000
  0.500000  0.750000  0.000000
  0.750000  0.750000  0.000000
[...]
POINT_DATA 8261
SCALARS pressure double
LOOKUP_TABLE default
  0.000000
  0.000000
  0.000000
  0.000000
  0.000000
  0.000000
  0.000000
  0.000000
  0.000000
  0.000000
  0.000000
  0.000000
  0.000000
  0.000000
  0.000000
  0.000000
  0.000000
  0.000000
  0.000000
  0.000000
  0.000000
  0.000000
  0.000000
  0.000000
  0.000000
  0.000000
  0.000000
  0.000000
  0.000000
  0.000000
  0.000000
  0.000000
  0.000000
  0.000000
  0.000000
  0.000000
  0.000000
  0.000000
  0.000000
  0.000000
  0.000000
  0.000000
  0.000000
  0.000000
  0.000000
  0.000000
  0.000000
  0.000000
  0.000000
  0.000000
  0.000000
  0.000000
  0.000000
  0.000000
  0.000000
  0.000000
  0.000000
  0.000000
  0.000000
  0.000000
  0.000000
  0.000000
  0.000000
  0.000000
  0.000000
  0.000000
  0.000000
  0.000000
  0.000000
  0.000000
  0.000000
  0.000000
  0.000000
  0.000000
  0.000000
  0.000000
  0.000000
  0.000000
  0.000000
  0.000000
  0.000000
  0.000000
  0.000000
  0.000000
  0.000000
  0.000000
  0.000000
  0.000000
  0.000000
  0.000000
  0.000000
  0.000000
  0.000000
  0.000000
  0.000000
  0.000000
  0.000000
  0.000000
  0.000000
  0.000000
  0.000000
  0.000000
  0.000000
  0.000000
  0.000000
  0.000000
  0.000000
  0.000000
  0.000000
  0.000000
  0.000000
  0.000000
  0.000000
  0.000000
  0.000000
  0.000000
  0.000000
  0.000000
  0.000000
  0.000000
  0.000000
  0.000000
  0.000000
  0.000000
  0.000000
  0.000000
  0.000000
  0.000000
  0.000000
  0.000000
  0.000000
  0.000000
  0.000000
  0.000000
  0.000000
  0.000000
  0.000000
  0.000000
  0.000000
  0.000000
  0.000000
  0.000000
  0.000000
  0.000000
  0.000000
  0.000000
  0.000000
  0.000000
  0.000000
  0.000000
  0.000000
  0.000000
  0.000000
  0.000000
  0.000000
  0.000000
  0.000000
  0.000000
  0.000000
  0.000000
  0.000000
  0.000000
  0.000000
  0.000000
  0.000000
  0.000000
  0.000000
  0.000000
  0.000000
  0.000000
  0.000000
  0.000000
  0.000000
  0.000000
  0.000000
  0.000000
  0.000000
  0.000000
  0.000000
  0.000000
  0.000000
  0.000000
  0.000000
  0.000000
  0.000000
  0.000000
  0.000000
  0.000000
  0.000000
  0.000000
  0.000000
  0.000000
  0.000000
  0.000000
  0.000000
  0.000000
  0.000000
  0.000000
  0.000000
  0.000000
  0.000000
  0.000000
  0.000000
  0.000000
  0.000000
  0.000000
  0.000000
  0.000000
  0.000000
  0.000000
  0.000000
  0.000000
  0.000000
  0.000000
  0.000000
  0.000000
  0.000000
  0.000000
  0.000000
  0.000000
  0.000000
  0.000000
  0.000000
  0.000000
  0.000000
  0.000000
  0.000000
  0.000000
  0.000000
  0.000000
  0.000000
  0.000000
  0.000000
  0.000000
  0.000000
  0.000000
  0.000000
  0.000000
  0.000000
  0.000000
  0.000000
  0.000000
  0.000000
  0.000000
  0.000000
  0.000000
  0.000000
  0.000000
  0.000000
  0.000000
  0.000000
  0.000000
  0.000000
  0.000000
  0.000000
  0.000000
  0.000000
  0.000000
  0.000000
  0.000000
  0.000000
  0.000000
  0.000000
  0.000000
  0.000000
  0.000000
  0.000000
  0.000000
  0.000000
  0.000000
  0.000000
  0.000000
  0.000000
  0.000000
  0.000000
  0.000000
  0.000000
  0.000000
  0.000000
  0.000000
  0.000000
  0.000000
  0.000000
  0.000000
  0.000000
  0.000000
  0.000000
  0.000000
  0.000000
  0.000000
  0.000000
  0.000000
  0.000000
  0.000000
  0.000000
  0.000000
  0.000000
  0.000000
  0.000000
  0.000000
  0.000000
  0.000000
  0.000000
  0.000000
  0.000000
  0.000000
  0.000000
  0.000000
  0.000000
  0.000000
  0.000000
  0.000000
  0.000000
  0.000000
  0.000000
  0.000000
  0.000000
  0.000000
  0.000000
  0.000000
  0.000000
  0.000000
  0.000000
  0.000000
  0.000000
  0.000000
  0.000000
  0.000000
  0.000000
  0.000000
  0.000000
  0.000000
  0.000000
  0.000000
  0.000000
  0.000000
  0.000000
  0.000000
  0.000000
  0.000000
  0.000000
  0.000000
  0.000000
  0.000000
  0.000000
  0.000000
  0.000000
  0.000000
  0.000000
  0.000000
  0.000000
  0.000000
  0.000000
  0.000000
  0.000000
  0.000000
  0.000000
  0.000000
  0.000000
  0.000000
  0.000000
  0.000000
  0.000000
  0.000000
  0.000000
  0.000000
  0.000000
  0.000000
  0.000000
  0.000000
  0.000000
  0.000000
  0.000000
  0.000000
  0.000000
  0.000000
  0.000000
  0.000000
  0.000000
  0.000000
  0.000000
  0.000000
  0.000000
  0.000000
  0.000000
  0.000000
  0.000000
  0.000000
  0.000000
  0.000000
  0.000000
  0.000000
  0.000000
  0.000000
  0.000000
  0.000000
  0.000000
  0.000000
  0.000000
  0.000000
  0.000000
  0.000000
  0.000000
  0.000000
  0.000000
  0.000000
  0.000000
  0.000000
  0.000000
  0.000000
  0.000000
  0.000000
  0.000000
  0.000000
  0.000000
  0.000000
  0.000000
  0.000000
  0.000000
  0.000000
  0.000000
  0.000000
  0.000000
  0.000000
  0.000000
  0.000000
  0.000000
  0.000000
  0.000000
  0.000000
  0.000000
  0.000000
  0.000000
  0.000000
  0.000000
  0.000000
  0.000000
  0.000000
  0.000000
  0.000000
  0.000000
  0.000000
  0.000000
  0.000000
  0.000000
  0.000000
  0.000000
  0.000000
  0.000000
  0.000000
  0.000000
  0.000000
  0.000000
  0.000000
  0.000000
  0.000000
  0.000000
  0.000000
  0.000000
  0.000000
  0.000000
  0.000000
  0.000000
  -0.001537
  -0.001275
  -0.001180
  -0.000710
  -0.000831
  -0.000361
  -0.000492
  0.001059
  -0.000168
  -0.011154
  0.000000
  -0.005314
  -0.000261
  -0.000148
  -0.001151
  -0.000838
  -0.000786
  -0.000583
  -0.000747
  -0.000569
  -0.000628
  -0.000427
  -0.000438
  -0.000544
  -0.000654
  0.000058
  0.000499
  -0.002944
  -0.004394
  0.008586
  -0.005311
  0.000000
  -0.000659
  -0.001230
  -0.000722
  -0.000774
  -0.000593
  -0.000422
  -0.000675
  0.000795
  -0.004330
  -0.016499
  0.000000
  -0.000833
  -0.002323
  -0.001188
  -0.001258
  -0.001137
  -0.000825
  -0.000728
  -0.000760
  -0.000694
  -0.000619
  -0.000456
  -0.000385
  -0.000537
  -0.000576
  0.000572
  0.001075
  -0.001116
  -0.001129
  0.009170
  -0.030701
  0.000000
  -0.001682
  -0.001258
  -0.000792
  -0.000749
  -0.000621
  -0.000376
  -0.000722
  0.001229
  -0.005142
  -0.022811
  0.000000
  -0.004176
  -0.000885
  -0.000396
  -0.001130
  -0.001028
  -0.000743
  -0.000689
  -0.000728
  -0.000686
  -0.000607
  -0.000480
  -0.000396
  -0.000698
  -0.000783
  0.000338
  0.001110
  -0.004669
  -0.006780
  0.015351
  -0.012637
  0.000000
  -0.000958
  -0.001211
  -0.000738
  -0.000731
  -0.000605
  -0.000354
  -0.000774
  0.001503
  -0.005849
  -0.025813
  0.000000
  -0.001947
  -0.001679
  -0.000959
  -0.001247
  -0.001142
  -0.000778
  -0.000715
  -0.000731
  -0.000694
  -0.000606
  -0.000434
  -0.000339
  -0.000582
  -0.000669
  0.000908
  0.001604
  -0.001768
  -0.002045
  0.012768
  -0.041279
  0.000000
  -0.001365
  -0.001219
  -0.000753
  -0.000729
  -0.000608
  -0.000345
  -0.000812
  0.001601
  -0.006374
  -0.027802
  0.000000
  -0.003500
  -0.001147
  -0.000488
  -0.001113
  -0.001030
  -0.000742
  -0.000688
  -0.000721
  -0.000687
  -0.000605
  -0.000470
  -0.000380
  -0.000740
  -0.000842
  0.000432
  0.001300
  -0.005362
  -0.007648
  0.017594
  -0.014524
  0.000000
  -0.001365
  -0.001219
  -0.000753
  -0.000729
  -0.000608
  -0.000345
  -0.000812
  0.001601
  -0.006374
  -0.027802
  0.000000
  -0.001947
  -0.001679
  -0.000959
  -0.001247
  -0.001142
  -0.000778
  -0.000715
  -0.000731
  -0.000694
  -0.000606
  -0.000434
  -0.000339
  -0.000582
  -0.000669
  0.000908
  0.001604
  -0.001768
  -0.002045
  0.012768
  -0.041279
  0.000000
  -0.000958
  -0.001211
  -0.000738
  -0.000731
  -0.000605
  -0.000354
  -0.000774
  0.001503
  -0.005849
  -0.025813
  0.000000
  -0.004176
  -0.000885
  -0.000396
  -0.001130
  -0.001028
  -0.000743
  -0.000689
  -0.000728
  -0.000686
  -0.000607
  -0.000480
  -0.000396
  -0.000698
  -0.000783
  0.000338
  0.001110
  -0.004669
  -0.006780
  0.015351
  -0.012637
  0.000000
  -0.001682
  -0.001258
  -0.000792
  -0.000749
  -0.000621
  -0.000376
  -0.000722
  0.001229
  -0.005142
  -0.022811
  0.000000
  -0.000833
  -0.002323
  -0.001188
  -0.001258
  -0.001137
  -0.000825
  -0.000728
  -0.000760
  -0.000694
  -0.000619
  -0.000456
  -0.000385
  -0.000537
  -0.000576
  0.000572
  0.001075
  -0.001116
  -0.001129
  0.009170
  -0.030701
  0.000000
  -0.000659
  -0.001230
  -0.000722
  -0.000774
  -0.000593
  -0.000422
  -0.000675
  0.000795
  -0.004330
  -0.016499
  0.000000
  -0.005314
  -0.000261
  -0.000148
  -0.001151
  -0.000838
  -0.000786
  -0.000583
  -0.000747
  -0.000569
  -0.000628
  -0.000427
  -0.000438
  -0.000544
  -0.000654
  0.000058
  0.000499
  -0.002944
  -0.004394
  0.008586
  -0.005311
  0.000000
  -0.001537
  -0.001275
  -0.001180
  -0.000710
  -0.000831
  -0.000361
  -0.000492
  0.001059
  -0.000168
  -0.011154
  0.000000
  0.000000
  0.000000
  0.000000
  0.000000
  0.000000
  0.000000
  0.000000
  0.000000
  0.000000
  0.000000
  0.000000
  0.000000
  0.000000
  0.000000
  0.000000
  0.000000
  0.000000
  0.000000
  0.000000
  0.000000
  0.000000
  0.000000
  0.000000
  0.000000
  0.000000
  0.000000
  0.000000
  0.000000
  0.000000
  0.000000
  0.000000
  0.000000
  0.000000
  0.000000
  0.000000
  0.000000
  0.000000
  0.000000
  0.000000
  0.000000
  0.000000
  0.000000
  -0.003056
  -0.001613
  -0.000569
  -0.001464
  -0.001098
  -0.001049
  -0.000687
  -0.000869
  -0.000709
  -0.000786
  -0.000468
  -0.000494
  -0.000581
  -0.000639
  0.000067
  0.000599
  -0.001998
  -0.001489
  0.002731
  -0.014156
  0.000000
  -0.006202
  -0.002035
  -0.000877
  -0.001986
  -0.001575
  -0.001348
  -0.001077
  -0.001174
  -0.001039
  -0.001026
  -0.000754
  -0.000651
  -0.000855
  -0.000881
  0.000001
  0.001034
  -0.003107
  -0.002650
  0.006082
  -0.024525
  0.000000
  -0.006395
  -0.002483
  -0.001099
  -0.002097
  -0.001785
  -0.001349
  -0.001176
  -0.001259
  -0.001144
  -0.001048
  -0.000794
  -0.000684
  -0.000910
  -0.000993
  0.000327
  0.001337
  -0.003018
  -0.003545
  0.008393
  -0.036189
  0.000000
  -0.006603
  -0.002824
  -0.001392
  -0.002086
  -0.001897
  -0.001356
  -0.001229
  -0.001288
  -0.001188
  -0.001058
  -0.000808
  -0.000703
  -0.000920
  -0.001053
  0.000581
  0.001343
  -0.002758
  -0.004390
  0.015396
  -0.047494
  0.000000
  -0.006592
  -0.002726
  -0.001141
  -0.002135
  -0.001872
  -0.001335
  -0.001233
  -0.001287
  -0.001195
  -0.001060
  -0.000837
  -0.000684
  -0.001025
  -0.001153
  0.000442
  0.001745
  -0.004772
  -0.005687
  0.010521
  -0.047500
  0.000000
  -0.007187
  -0.002660
  -0.000971
  -0.002118
  -0.001831
  -0.001329
  -0.001208
  -0.001273
  -0.001188
  -0.001054
  -0.000842
  -0.000672
  -0.001099
  -0.001160
  0.000346
  0.001934
  -0.006138
  -0.006286
  0.013168
  -0.046805
  0.000000
  -0.006586
  -0.002847
  -0.001206
  -0.002148
  -0.001890
  -0.001311
  -0.001213
  -0.001269
  -0.001198
  -0.001048
  -0.000808
  -0.000645
  -0.001053
  -0.001210
  0.000693
  0.002194
  -0.005217
  -0.006255
  0.013176
  -0.056133
  0.000000
  -0.006818
  -0.003049
  -0.001476
  -0.002097
  -0.001933
  -0.001313
  -0.001219
  -0.001263
  -0.001196
  -0.001041
  -0.000780
  -0.000646
  -0.000988
  -0.001192
  0.000991
  0.002025
  -0.003842
  -0.006076
  0.022101
  -0.065385
  0.000000
  -0.006387
  -0.002857
  -0.001192
  -0.002120
  -0.001876
  -0.001291
  -0.001204
  -0.001257
  -0.001189
  -0.001041
  -0.000801
  -0.000628
  -0.001079
  -0.001255
  0.000744
  0.002363
  -0.005776
  -0.006875
  0.013938
  -0.059694
  0.000000
  -0.006961
  -0.002716
  -0.000957
  -0.002068
  -0.001820
  -0.001294
  -0.001187
  -0.001249
  -0.001181
  -0.001038
  -0.000822
  -0.000636
  -0.001148
  -0.001228
  0.000488
  0.002316
  -0.007062
  -0.007238
  0.015492
  -0.053762
  0.000000
  -0.006387
  -0.002857
  -0.001192
  -0.002120
  -0.001876
  -0.001291
  -0.001204
  -0.001257
  -0.001189
  -0.001041
  -0.000801
  -0.000628
  -0.001079
  -0.001255
  0.000744
  0.002363
  -0.005776
  -0.006875
  0.013938
  -0.059694
  0.000000
  -0.006818
  -0.003049
  -0.001476
  -0.002097
  -0.001933
  -0.001313
  -0.001219
  -0.001263
  -0.001196
  -0.001041
  -0.000780
  -0.000646
  -0.000988
  -0.001192
  0.000991
  0.002025
  -0.003842
  -0.006076
  0.022101
  -0.065385
  0.000000
  -0.006586
  -0.002847
  -0.001206
  -0.002148
  -0.001890
  -0.001311
  -0.001213
  -0.001269
  -0.001198
  -0.001048
  -0.000808
  -0.000645
  -0.001053
  -0.001210
  0.000693
  0.002194
  -0.005217
  -0.006255
  0.013176
  -0.056133
  0.000000
  -0.007187
  -0.002660
  -0.000971
  -0.002118
  -0.001831
  -0.001329
  -0.001208
  -0.001273
  -0.001188
  -0.001054
  -0.000842
  -0.000672
  -0.001099
  -0.001160
  0.000346
  0.001934
  -0.006138
  -0.006286
  0.013168
  -0.046805
  0.000000
  -0.006592
  -0.002726
  -0.001141
  -0.002135
  -0.001872
  -0.001335
  -0.001233
  -0.001287
  -0.001195
  -0.001060
  -0.000837
  -0.000684
  -0.001025
  -0.001153
  0.000442
  0.001745
  -0.004772
  -0.005687
  0.010521
  -0.047500
  0.000000
  -0.006603
  -0.002824
  -0.001392
  -0.002086
  -0.001897
  -0.001356
  -0.001229
  -0.001288
  -0.001188
  -0.001058
  -0.000808
  -0.000703
  -0.000920
  -0.001053
  0.000581
  0.001343
  -0.002758
  -0.004390
  0.015396
  -0.047494
  0.000000
  -0.006395
  -0.002483
  -0.001099
  -0.002097
  -0.001785
  -0.001349
  -0.001176
  -0.001259
  -0.001144
  -0.001048
  -0.000794
  -0.000684
  -0.000910
  -0.000993
  0.000327
  0.001337
  -0.003018
  -0.003545
  0.008393
  -0.036189
  0.000000
  -0.006202
  -0.002035
  -0.000877
  -0.001986
  -0.001575
  -0.001348
  -0.001077
  -0.001174
  -0.001039
  -0.001026
  -0.000754
  -0.000651
  -0.000855
  -0.000881
  0.000001
  0.001034
  -0.003107
  -0.002650
  0.006082
  -0.024525
  0.000000
  -0.003056
  -0.001613
  -0.000569
  -0.001464
  -0.001098
  -0.001049
  -0.000687
  -0.000869
  -0.000709
  -0.000786
  -0.000468
  -0.000494
  -0.000581
  -0.000639
  0.000067
  0.000599
  -0.001998
  -0.001489
  0.002731
  -0.014156
  0.000000
  0.000000
  0.000000
  0.000000
  0.000000
  0.000000
  0.000000
  0.000000
  0.000000
  0.000000
  0.000000
  0.000000
  0.000000
  0.000000
  0.000000
  0.000000
  0.000000
  0.000000
  0.000000
  0.000000
  0.000000
  0.000000
  0.000000
  0.000000
  0.000000
  0.000000
  0.000000
  0.000000
  0.000000
  0.000000
  0.000000
  0.000000
  0.000000
  0.000000
  0.000000
  0.000000
  0.000000
  0.000000
  0.000000
  0.000000
  0.000000
  0.000000
  0.000000
  -0.001704
  -0.001373
  -0.000943
  -0.000856
  -0.000737
  -0.000526
  -0.000679
  0.000065
  -0.001901
  -0.013692
  0.000000
  -0.008693
  -0.003375
  -0.001431
  -0.002211
  -0.001922
  -0.001581
  -0.001252
  -0.001303
  -0.001214
  -0.001172
  -0.000851
  -0.000733
  -0.000903
  -0.000867
  0.000065
  0.000897
  -0.001991
  0.000000
  0.006721
  -0.031311
  0.000000
  -0.003837
  -0.002592
  -0.001690
  -0.001528
  -0.001281
  -0.000849
  -0.001075
  0.001335
  -0.001844
  -0.038609
  0.000000
  -0.012367
  -0.003555
  -0.001414
  -0.002538
  -0.002278
  -0.001673
  -0.001503
  -0.001594
  -0.001457
  -0.001302
  -0.001041
  -0.000921
  -0.001159
  -0.001220
  0.000230
  0.001100
  -0.003920
  -0.003997
  0.013493
  -0.049499
  0.000000
  -0.003674
  -0.002645
  -0.001682
  -0.001609
  -0.001327
  -0.000898
  -0.001302
  0.001705
  -0.004711
  -0.051027
  0.000000
  -0.011456
  -0.004414
  -0.001773
  -0.002683
  -0.002406
  -0.001723
  -0.001540
  -0.001603
  -0.001509
  -0.001334
  -0.001055
  -0.000881
  -0.001243
  -0.001261
  0.000466
  0.001871
  -0.004732
  -0.003864
  0.017619
  -0.057435
  0.000000
  -0.004713
  -0.002722
  -0.001696
  -0.001608
  -0.001325
  -0.000866
  -0.001363
  0.002104
  -0.004905
  -0.059866
  0.000000
  -0.011387
  -0.004748
  -0.001825
  -0.002594
  -0.002378
  -0.001672
  -0.001526
  -0.001599
  -0.001502
  -0.001308
  -0.001039
  -0.000882
  -0.001270
  -0.001361
  0.000563
  0.001720
  -0.005249
  -0.004953
  0.020127
  -0.068812
  0.000000
  -0.004378
  -0.002662
  -0.001645
  -0.001590
  -0.001308
  -0.000845
  -0.001390
  0.002333
  -0.005477
  -0.063910
  0.000000
  -0.011633
  -0.004325
  -0.001749
  -0.002645
  -0.002387
  -0.001659
  -0.001512
  -0.001580
  -0.001500
  -0.001308
  -0.001031
  -0.000844
  -0.001282
  -0.001314
  0.000655
  0.002276
  -0.005521
  -0.004667
  0.020965
  -0.066173
  0.000000
  -0.004378
  -0.002662
  -0.001645
  -0.001590
  -0.001308
  -0.000845
  -0.001390
  0.002333
  -0.005477
  -0.063910
  0.000000
  -0.011387
  -0.004748
  -0.001825
  -0.002594
  -0.002378
  -0.001672
  -0.001526
  -0.001599
  -0.001502
  -0.001308
  -0.001039
  -0.000882
  -0.001270
  -0.001361
  0.000563
  0.001720
  -0.005249
  -0.004953
  0.020127
  -0.068812
  0.000000
  -0.004713
  -0.002722
  -0.001696
  -0.001608
  -0.001325
  -0.000866
  -0.001363
  0.002104
  -0.004905
  -0.059866
  0.000000
  -0.011456
  -0.004414
  -0.001773
  -0.002683
  -0.002406
  -0.001723
  -0.001540
  -0.001603
  -0.001509
  -0.001334
  -0.001055
  -0.000881
  -0.001243
  -0.001261
  0.000466
  0.001871
  -0.004732
  -0.003864
  0.017619
  -0.057435
  0.000000
  -0.003674
  -0.002645
  -0.001682
  -0.001609
  -0.001327
  -0.000898
  -0.001302
  0.001705
  -0.004711
  -0.051027
  0.000000
  -0.012367
  -0.003555
  -0.001414
  -0.002538
  -0.002278
  -0.001673
  -0.001503
  -0.001594
  -0.001457
  -0.001302
  -0.001041
  -0.000921
  -0.001159
  -0.001220
  0.000230
  0.001100
  -0.003920
  -0.003997
  0.013493
  -0.049499
  0.000000
  -0.003837
  -0.002592
  -0.001690
  -0.001528
  -0.001281
  -0.000849
  -0.001075
  0.001335
  -0.001844
  -0.038609
  0.000000
  -0.008693
  -0.003375
  -0.001431
  -0.002211
  -0.001922
  -0.001581
  -0.001252
  -0.001303
  -0.001214
  -0.001172
  -0.000851
  -0.000733
  -0.000903
  -0.000867
  0.000065
  0.000897
  -0.001991
  0.000000
  0.006721
  -0.031311
  0.000000
  -0.001704
  -0.001373
  -0.000943
  -0.000856
  -0.000737
  -0.000526
  -0.000679
  0.000065
  -0.001901
  -0.013692
  0.000000
  0.000000
  0.000000
  0.000000
  0.000000
  0.000000
  0.000000
  0.000000
  0.000000
  0.000000
  0.000000
  0.000000
  0.000000
  0.000000
  0.000000
  0.000000
  0.000000
  0.000000
  0.000000
  0.000000
  0.000000
  0.000000
  0.000000
  0.000000
  0.000000
  0.000000
  0.000000
  0.000000
  0.000000
  0.000000
  0.000000
  0.000000
  0.000000
  0.000000
  0.000000
  0.000000
  0.000000
  0.000000
  0.000000
  0.000000
  0.000000
  0.000000
  0.000000
  -0.006239
  -0.001831
  -0.000740
  -0.001334
  -0.001133
  -0.000872
  -0.000748
  -0.000816
  -0.000713
  -0.000667
  -0.000522
  -0.000486
  -0.000512
  -0.000500
  -0.000038
  0.000283
  -0.000814
  0.000120
  0.004013
  -0.017949
  0.000000
  -0.010929
  -0.003315
  -0.001432
  -0.002126
  -0.001906
  -0.001438
  -0.001247
  -0.001301
  -0.001199
  -0.001096
  -0.000860
  -0.000772
  -0.000873
  -0.000866
  -0.000033
  0.000512
  -0.001738
  -0.000652
  0.006653
  -0.032833
  0.000000
  -0.011916
  -0.004360
  -0.001591
  -0.002569
  -0.002254
  -0.001704
  -0.001477
  -0.001568
  -0.001437
  -0.001305
  -0.001034
  -0.000923
  -0.001096
  -0.001095
  -0.000037
  0.000797
  -0.002904
  -0.001669
  0.007775
  -0.042707
  0.000000
  -0.012727
  -0.005044
  -0.001768
  -0.002745
  -0.002435
  -0.001825
  -0.001610
  -0.001688
  -0.001560
  -0.001399
  -0.001136
  -0.000985
  -0.001220
  -0.001209
  0.000011
  0.001074
  -0.003679
  -0.002224
  0.010386
  -0.050964
  0.000000
  -0.012805
  -0.005491
  -0.002012
  -0.002875
  -0.002569
  -0.001863
  -0.001668
  -0.001740
  -0.001620
  -0.001434
  -0.001158
  -0.000995
  -0.001263
  -0.001268
  0.000195
  0.001381
  -0.003996
  -0.002450
  0.012314
  -0.057756
  0.000000
  -0.013769
  -0.005811
  -0.002273
  -0.002884
  -0.002653
  -0.001876
  -0.001690
  -0.001754
  -0.001646
  -0.001441
  -0.001157
  -0.000999
  -0.001271
  -0.001284
  0.000373
  0.001480
  -0.003903
  -0.002758
  0.017642
  -0.065333
  0.000000
  -0.012809
  -0.005867
  -0.002143
  -0.002906
  -0.002615
  -0.001845
  -0.001675
  -0.001754
  -0.001646
  -0.001439
  -0.001165
  -0.000988
  -0.001331
  -0.001359
  0.000323
  0.001710