# vtk DataFile Version 2.0
UVP for 10x3 channel problem
ASCII

DATASET UNSTRUCTURED_GRID
POINTS 44 double
  0.000000  0.000000  0.000000
  0.000000  1.000000  0.000000
  0.000000  2.000000  0.000000
  0.000000  3.000000  0.000000
  1.000000  0.000000  0.000000
  1.000000  1.000000  0.000000
  1.000000  2.000000  0.000000
  1.000000  3.000000  0.000000
  2.000000  0.000000  0.000000
  2.000000  1.000000  0.000000
  2.000000  2.000000  0.000000
  2.000000  3.000000  0.000000
  3.000000  0.000000  0.000000
  3.000000  1.000000  0.000000
  3.000000  2.000000  0.000000
  3.000000  3.000000  0.000000
  4.000000  0.000000  0.000000
  4.000000  1.000000  0.000000
  4.000000  2.000000  0.000000
  4.000000  3.000000  0.000000
  5.000000  0.000000  0.000000
  5.000000  1.000000  0.000000
  5.000000  2.000000  0.000000
  5.000000  3.000000  0.000000
  6.000000  0.000000  0.000000
  6.000000  1.000000  0.000000
  6.000000  2.000000  0.000000
  6.000000  3.000000  0.000000
  7.000000  0.000000  0.000000
  7.000000  1.000000  0.000000
  7.000000  2.000000  0.000000
  7.000000  3.000000  0.000000
  8.000000  0.000000  0.000000
  8.000000  1.000000  0.000000
  8.000000  2.000000  0.000000
  8.000000  3.000000  0.000000
  9.000000  0.000000  0.000000
  9.000000  1.000000  0.000000
  9.000000  2.000000  0.000000
  9.000000  3.000000  0.000000
  10.000000  0.000000  0.000000
  10.000000  1.000000  0.000000
  10.000000  2.000000  0.000000
  10.000000  3.000000  0.000000

CELLS  60  240
  3  0  1  11
  3  12  11  1
  3  1  2  12
  3  13  12  2
  3  2  3  13
  3  14  13  3
  3  3  4  14
  3  15  14  4
  3  4  5  15
  3  16  15  5
  3  5  6  16
  3  17  16  6
  3  6  7  17
  3  18  17  7
  3  7  8  18
  3  19  18  8
  3  8  9  19
  3  20  19  9
  3  9  10  20
  3  21  20  10
  3  11  12  22
  3  23  22  12
  3  12  13  23
  3  24  23  13
  3  13  14  24
  3  25  24  14
  3  14  15  25
  3  26  25  15
  3  15  16  26
  3  27  26  16
  3  16  17  27
  3  28  27  17
  3  17  18  28
  3  29  28  18
  3  18  19  29
  3  30  29  19
  3  19  20  30
  3  31  30  20
  3  20  21  31
  3  32  31  21
  3  22  23  33
  3  34  33  23
  3  23  24  34
  3  35  34  24
  3  24  25  35
  3  36  35  25
  3  25  26  36
  3  37  36  26
  3  26  27  37
  3  38  37  27
  3  27  28  38
  3  39  38  28
  3  28  29  39
  3  40  39  29
  3  29  30  40
  3  41  40  30
  3  30  31  41
  3  42  41  31
  3  31  32  42
  3  43  42  32

CELL_TYPES 60
5
5
5
5
5
5
5
5
5
5
5
5
5
5
5
5
5
5
5
5
5
5
5
5
5
5
5
5
5
5
5
5
5
5
5
5
5
5
5
5
5
5
5
5
5
5
5
5
5
5
5
5
5
5
5
5
5
5
5
5

POINT_DATA 44
SCALARS pressure double
LOOKUP_TABLE default
  0.000000
  0.000000
  0.000000
  0.000000
  -2.000000
  -2.000000
  -2.000000
  -2.000000
  -4.000000
  -4.000000
  -4.000000
  -4.000000
  -6.000000
  -6.000000
  -6.000000
  -6.000000
  -8.000000
  -8.000000
  -8.000000
  -8.000000
  -10.000000
  -10.000000
  -10.000000
  -10.000000
  -12.000000
  -12.000000
  -12.000000
  -12.000000
  -14.000000
  -14.000000
  -14.000000
  -14.000000
  -16.000000
  -16.000000
  -16.000000
  -16.000000
  -18.000000
  -18.000000
  -18.000000
  -18.000000
  -20.000000
  -20.000000
  -20.000000
  -20.000000
VECTORS velocity double
  0.000000  0.000000  0.000000
  2.000000  0.000000  0.000000
  2.000000  0.000000  0.000000
  0.000000  0.000000  0.000000
  0.000000  0.005875  0.000000
  2.000000  0.005875  0.000000
  2.000000  0.005875  0.000000
  0.000000  0.005875  0.000000
  0.000000  0.009509  0.000000
  2.000000  0.009509  0.000000
  2.000000  0.009509  0.000000
  0.000000  0.009509  0.000000
  0.000000  0.009514  0.000000
  2.000000  0.009514  0.000000
  2.000000  0.009514  0.000000
  0.000000  0.009514  0.000000
  0.000000  0.005888  0.000000
  2.000000  0.005888  0.000000
  2.000000  0.005888  0.000000
  0.000000  0.005888  0.000000
  0.000000  0.000016  0.000000
  2.000000  0.000016  0.000000
  2.000000  0.000016  0.000000
  0.000000  0.000016  0.000000
  0.000000  -0.005862  0.000000
  2.000000  -0.005862  0.000000
  2.000000  -0.005862  0.000000
  0.000000  -0.005862  0.000000
  0.000000  -0.009504  0.000000
  2.000000  -0.009504  0.000000
  2.000000  -0.009504  0.000000
  0.000000  -0.009504  0.000000
  0.000000  -0.009518  0.000000
  2.000000  -0.009518  0.000000
  2.000000  -0.009518  0.000000
  0.000000  -0.009518  0.000000
  0.000000  -0.005901  0.000000
  2.000000  -0.005901  0.000000
  2.000000  -0.005901  0.000000
  0.000000  -0.005901  0.000000
  0.000000  -0.000032  0.000000
  2.000000  -0.000032  0.000000
  2.000000  -0.000032  0.000000
  0.000000  -0.000032  0.000000
