<VTKFile type="unstructuredGrid" version="0.1" byte_order="BigEndian">
  <UnstructuredGrid>
    <Piece NumberOfPoints="44" NumberOfCells="60">
      <PointData Scalars="scalars">
        <DataArray type="Float64" Name="pressure" Format="ascii">
0.000000
0.000000
0.000000
0.000000
-2.000000
-2.000000
-2.000000
-2.000000
-4.000000
-4.000000
-4.000000
-4.000000
-6.000000
-6.000000
-6.000000
-6.000000
-8.000000
-8.000000
-8.000000
-8.000000
-10.000000
-10.000000
-10.000000
-10.000000
-12.000000
-12.000000
-12.000000
-12.000000
-14.000000
-14.000000
-14.000000
-14.000000
-16.000000
-16.000000
-16.000000
-16.000000
-18.000000
-18.000000
-18.000000
-18.000000
-20.000000
-20.000000
-20.000000
-20.000000
        </DataArray>
        <DataArray type="Float64" NumberOfComponents="3" Name="velocity" Format="ascii">
0.000000  0.000000  0.000000
2.000000  0.000000  0.000000
2.000000  0.000000  0.000000
0.000000  0.000000  0.000000
0.000000  0.005875  0.000000
2.000000  0.005875  0.000000
2.000000  0.005875  0.000000
0.000000  0.005875  0.000000
0.000000  0.009509  0.000000
2.000000  0.009509  0.000000
2.000000  0.009509  0.000000
0.000000  0.009509  0.000000
0.000000  0.009514  0.000000
2.000000  0.009514  0.000000
2.000000  0.009514  0.000000
0.000000  0.009514  0.000000
0.000000  0.005888  0.000000
2.000000  0.005888  0.000000
2.000000  0.005888  0.000000
0.000000  0.005888  0.000000
0.000000  0.000016  0.000000
2.000000  0.000016  0.000000
2.000000  0.000016  0.000000
0.000000  0.000016  0.000000
0.000000  -0.005862  0.000000
2.000000  -0.005862  0.000000
2.000000  -0.005862  0.000000
0.000000  -0.005862  0.000000
0.000000  -0.009504  0.000000
2.000000  -0.009504  0.000000
2.000000  -0.009504  0.000000
0.000000  -0.009504  0.000000
0.000000  -0.009518  0.000000
2.000000  -0.009518  0.000000
2.000000  -0.009518  0.000000
0.000000  -0.009518  0.000000
0.000000  -0.005901  0.000000
2.000000  -0.005901  0.000000
2.000000  -0.005901  0.000000
0.000000  -0.005901  0.000000
0.000000  -0.000032  0.000000
2.000000  -0.000032  0.000000
2.000000  -0.000032  0.000000
0.000000  -0.000032  0.000000
        </DataArray>
      </PointData>
      <Points>
        <DataArray type="Float64" NumberOfComponents="3" Format="ascii">
0.000000  0.000000  0.000000
0.000000  1.000000  0.000000
0.000000  2.000000  0.000000
0.000000  3.000000  0.000000
1.000000  0.000000  0.000000
1.000000  1.000000  0.000000
1.000000  2.000000  0.000000
1.000000  3.000000  0.000000
2.000000  0.000000  0.000000
2.000000  1.000000  0.000000
2.000000  2.000000  0.000000
2.000000  3.000000  0.000000
3.000000  0.000000  0.000000
3.000000  1.000000  0.000000
3.000000  2.000000  0.000000
3.000000  3.000000  0.000000
4.000000  0.000000  0.000000
4.000000  1.000000  0.000000
4.000000  2.000000  0.000000
4.000000  3.000000  0.000000
5.000000  0.000000  0.000000
5.000000  1.000000  0.000000
5.000000  2.000000  0.000000
5.000000  3.000000  0.000000
6.000000  0.000000  0.000000
6.000000  1.000000  0.000000
6.000000  2.000000  0.000000
6.000000  3.000000  0.000000
7.000000  0.000000  0.000000
7.000000  1.000000  0.000000
7.000000  2.000000  0.000000
7.000000  3.000000  0.000000
8.000000  0.000000  0.000000
8.000000  1.000000  0.000000
8.000000  2.000000  0.000000
8.000000  3.000000  0.000000
9.000000  0.000000  0.000000
9.000000  1.000000  0.000000
9.000000  2.000000  0.000000
9.000000  3.000000  0.000000
10.000000  0.000000  0.000000
10.000000  1.000000  0.000000
10.000000  2.000000  0.000000
10.000000  3.000000  0.000000
        </DataArray>
      </Points>
      <Cells>
        <DataArray type="Int32" Name="connectivity" Format="ascii">
  0  1  11
  12  11  1
  1  2  12
  13  12  2
  2  3  13
  14  13  3
  3  4  14
  15  14  4
  4  5  15
  16  15  5
  5  6  16
  17  16  6
  6  7  17
  18  17  7
  7  8  18
  19  18  8
  8  9  19
  20  19  9
  9  10  20
  21  20  10
  11  12  22
  23  22  12
  12  13  23
  24  23  13
  13  14  24
  25  24  14
  14  15  25
  26  25  15
  15  16  26
  27  26  16
  16  17  27
  28  27  17
  17  18  28
  29  28  18
  18  19  29
  30  29  19
  19  20  30
  31  30  20
  20  21  31
  32  31  21
  22  23  33
  34  33  23
  23  24  34
  35  34  24
  24  25  35
  36  35  25
  25  26  36
  37  36  26
  26  27  37
  38  37  27
  27  28  38
  39  38  28
  28  29  39
  40  39  29
  29  30  40
  41  40  30
  30  31  41
  42  41  31
  31  32  42
  43  42  32
        </DataArray>
        <DataArray type="Int32" Name="offsets" Format="ascii">
3
6
9
12
15
18
21
24
27
30
33
36
39
42
45
48
51
54
57
60
63
66
69
72
75
78
81
84
87
90
93
96
99
102
105
108
111
114
117
120
123
126
129
132
135
138
141
144
147
150
153
156
159
162
165
168
171
174
177
180
        </DataArray>
        <DataArray type="Int32" Name="types" Format="ascii">
5
5
5
5
5
5
5
5
5
5
5
5
5
5
5
5
5
5
5
5
5
5
5
5
5
5
5
5
5
5
5
5
5
5
5
5
5
5
5
5
5
5
5
5
5
5
5
5
5
5
5
5
5
5
5
5
5
5
5
5
        </DataArray>
      </Cells>
    </Piece>
  </UnstructuredGrid>
</VTKFile>
