Title="navier stokes flow"
Variables="x","y","z","vec1","vec2","vec3","vec4"
Zone N =8261, E =35000, DATAPACKING = POINT, ZONETYPE = FETETRAHEDRON
          0           0           0          0          0          0     5.5043
       0.25           0           0          0          0          0     5.1811
        0.5           0           0          0          0          0     4.8578
       0.75           0           0          0          0          0     4.6044
          1           0           0          0          0          0     4.3511
       1.25           0           0          0          0          0     4.0542
        1.5           0           0          0          0          0     3.7573
       1.75           0           0          0          0          0     3.4873
          2           0           0          0          0          0     3.2172
       2.25           0           0          0          0          0     2.9312
        2.5           0           0          0          0          0     2.6452
       2.75           0           0          0          0          0     2.3816
          3           0           0          0          0          0      2.118
       3.25           0           0          0          0          0     1.8412
        3.5           0           0          0          0          0     1.5643
       3.75           0           0          0          0          0     1.3118
          4           0           0          0          0          0     1.0593
       4.25           0           0          0          0          0    0.82593
        4.5           0           0          0          0          0    0.59254
       4.75           0           0          0          0          0    0.36418
          5           0           0          0          0          0    0.13582
          0        0.05           0          0          0          0     5.3448
       0.25        0.05           0          0          0          0     5.2397
        0.5        0.05           0          0          0          0     4.9164
       0.75        0.05           0          0          0          0      4.663
          1        0.05           0          0          0          0     4.3566
       1.25        0.05           0          0          0          0      4.071
        1.5        0.05           0          0          0          0     3.7741
       1.75        0.05           0          0          0          0     3.5041
          2        0.05           0          0          0          0     3.2197
       2.25        0.05           0          0          0          0     2.9426
        2.5        0.05           0          0          0          0     2.6565
       2.75        0.05           0          0          0          0     2.3929
          3        0.05           0          0          0          0     2.1189
       3.25        0.05           0          0          0          0     1.8465
        3.5        0.05           0          0          0          0     1.5697
       3.75        0.05           0          0          0          0     1.3172
          4        0.05           0          0          0          0     1.0525
       4.25        0.05           0          0          0          0    0.75658
        4.5        0.05           0          0          0          0    0.52319
       4.75        0.05           0          0          0          0    0.29483
          5        0.05           0          0          0          0     0.2687
          0         0.1           0          0          0          0     5.1853
       0.25         0.1           0          0          0          0     5.0801
        0.5         0.1           0          0          0          0      4.975
       0.75         0.1           0          0          0          0     4.6685
          1         0.1           0          0          0          0     4.3621
       1.25         0.1           0          0          0          0     4.0765
        1.5         0.1           0          0          0          0     3.7909
       1.75         0.1           0          0          0          0     3.5065
          2         0.1           0          0          0          0     3.2221
       2.25         0.1           0          0          0          0      2.945
        2.5         0.1           0          0          0          0     2.6679
       2.75         0.1           0          0          0          0     2.3938
          3         0.1           0          0          0          0     2.1198
       3.25         0.1           0          0          0          0     1.8474
        3.5         0.1           0          0          0          0      1.575
       3.75         0.1           0          0          0          0     1.3104
          4         0.1           0          0          0          0     1.0457
       4.25         0.1           0          0          0          0     0.7498
        4.5         0.1           0          0          0          0    0.45384
       4.75         0.1           0          0          0          0    0.42771
          5         0.1           0          0          0          0    0.40157
          0        0.15           0          0          0          0      5.339
       0.25        0.15           0          0          0          0     5.2338
        0.5        0.15           0          0          0          0     4.9593
       0.75        0.15           0          0          0          0     4.6693
          1        0.15           0          0          0          0     4.3629
       1.25        0.15           0          0          0          0     4.0773
        1.5        0.15           0          0          0          0     3.7909
       1.75        0.15           0          0          0          0     3.5076
          2        0.15           0          0          0          0     3.2232
       2.25        0.15           0          0          0          0     2.9461
        2.5        0.15           0          0          0          0     2.6684
       2.75        0.15           0          0          0          0      2.395
          3        0.15           0          0          0          0     2.1209
       3.25        0.15           0          0          0          0     1.8485
        3.5        0.15           0          0          0          0     1.5769
       3.75        0.15           0          0          0          0     1.3149
          4        0.15           0          0          0          0     1.0503
       4.25        0.15           0          0          0          0    0.75434
        4.5        0.15           0          0          0          0    0.49322
       4.75        0.15           0          0          0          0    0.28856
          5        0.15           0          0          0          0    0.26242
          0         0.2           0          0          0          0     5.4926
       0.25         0.2           0          0          0          0     5.2181
        0.5         0.2           0          0          0          0     4.9436
       0.75         0.2           0          0          0          0     4.6536
          1         0.2           0          0          0          0     4.3637
       1.25         0.2           0          0          0          0     4.0772
        1.5         0.2           0          0          0          0     3.7908
       1.75         0.2           0          0          0          0     3.5076
          2         0.2           0          0          0          0     3.2243
       2.25         0.2           0          0          0          0     2.9466
        2.5         0.2           0          0          0          0     2.6689
       2.75         0.2           0          0          0          0     2.3955
          3         0.2           0          0          0          0     2.1221
       3.25         0.2           0          0          0          0     1.8504
        3.5         0.2           0          0          0          0     1.5787
       3.75         0.2           0          0          0          0     1.3168
          4         0.2           0          0          0          0     1.0548
       4.25         0.2           0          0          0          0    0.79371
        4.5         0.2           0          0          0          0    0.53259
       4.75         0.2           0          0          0          0    0.32793
          5         0.2           0          0          0          0    0.12327
          0        0.25           0          0          0          0     5.4404
       0.25        0.25           0          0          0          0     5.2321
        0.5        0.25           0          0          0          0     4.9576
       0.75        0.25           0          0          0          0     4.6677
          1        0.25           0          0          0          0     4.3661
       1.25        0.25           0          0          0          0     4.0784
        1.5        0.25           0          0          0          0      3.792
       1.75        0.25           0          0          0          0     3.5088
          2        0.25           0          0          0          0     3.2251
       2.25        0.25           0          0          0          0     2.9471
        2.5        0.25           0          0          0          0     2.6694
       2.75        0.25           0          0          0          0      2.396
          3        0.25           0          0          0          0     2.1221
       3.25        0.25           0          0          0          0      1.849
        3.5        0.25           0          0          0          0     1.5774
       3.75        0.25           0          0          0          0     1.3154
          4        0.25           0          0          0          0     1.0522
       4.25        0.25           0          0          0          0    0.74688
        4.5        0.25           0          0          0          0    0.48576
       4.75        0.25           0          0          0          0     0.2811
          5        0.25           0          0          0          0    0.33706
          0         0.3           0          0          0          0     5.3882
       0.25         0.3           0          0          0          0     5.1799
        0.5         0.3           0          0          0          0     4.9716
       0.75         0.3           0          0          0          0     4.6701
          1         0.3           0          0          0          0     4.3686
       1.25         0.3           0          0          0          0     4.0809
        1.5         0.3           0          0          0          0     3.7932
       1.75         0.3           0          0          0          0     3.5095
          2         0.3           0          0          0          0     3.2258
       2.25         0.3           0          0          0          0     2.9479
        2.5         0.3           0          0          0          0     2.6699
       2.75         0.3           0          0          0          0      2.396
          3         0.3           0          0          0          0     2.1221
       3.25         0.3           0          0          0          0     1.8491
        3.5         0.3           0          0          0          0      1.576
       3.75         0.3           0          0          0          0     1.3128
          4         0.3           0          0          0          0     1.0496
       4.25         0.3           0          0          0          0    0.74424
        4.5         0.3           0          0          0          0    0.43892
       4.75         0.3           0          0          0          0    0.49489
          5         0.3           0          0          0          0    0.55085
          0        0.35           0          0          0          0      5.459
       0.25        0.35           0          0          0          0     5.2508
        0.5        0.35           0          0          0          0     4.9644
       0.75        0.35           0          0          0          0     4.6694
          1        0.35           0          0          0          0     4.3679
       1.25        0.35           0          0          0          0     4.0802
        1.5        0.35           0          0          0          0      3.793
       1.75        0.35           0          0          0          0     3.5097
          2        0.35           0          0          0          0      3.226
       2.25        0.35           0          0          0          0      2.948
        2.5        0.35           0          0          0          0     2.6701
       2.75        0.35           0          0          0          0     2.3966
          3        0.35           0          0          0          0     2.1228
       3.25        0.35           0          0          0          0     1.8497
        3.5        0.35           0          0          0          0     1.5775
       3.75        0.35           0          0          0          0     1.3175
          4        0.35           0          0          0          0     1.0543
       4.25        0.35           0          0          0          0      0.749
        4.5        0.35           0          0          0          0    0.48584
       4.75        0.35           0          0          0          0    0.28608
          5        0.35           0          0          0          0    0.34204
          0         0.4           0          0          0          0     5.5299
       0.25         0.4           0          0          0          0     5.2435
        0.5         0.4           0          0          0          0     4.9571
       0.75         0.4           0          0          0          0     4.6621
          1         0.4           0          0          0          0     4.3671
       1.25         0.4           0          0          0          0       4.08
        1.5         0.4           0          0          0          0     3.7928
       1.75         0.4           0          0          0          0     3.5095
          2         0.4           0          0          0          0     3.2262
       2.25         0.4           0          0          0          0     2.9482
        2.5         0.4           0          0          0          0     2.6703
       2.75         0.4           0          0          0          0     2.3968
          3         0.4           0          0          0          0     2.1234
       3.25         0.4           0          0          0          0     1.8512
        3.5         0.4           0          0          0          0      1.579
       3.75         0.4           0          0          0          0      1.319
          4         0.4           0          0          0          0     1.0591
       4.25         0.4           0          0          0          0    0.79591
        4.5         0.4           0          0          0          0    0.53275
       4.75         0.4           0          0          0          0    0.33299
          5         0.4           0          0          0          0    0.13324
          0        0.45           0          0          0          0     5.4958
       0.25        0.45           0          0          0          0       5.25
        0.5        0.45           0          0          0          0     4.9637
       0.75        0.45           0          0          0          0     4.6687
          1        0.45           0          0          0          0     4.3687
       1.25        0.45           0          0          0          0     4.0804
        1.5        0.45           0          0          0          0     3.7932
       1.75        0.45           0          0          0          0     3.5099
          2        0.45           0          0          0          0     3.2264
       2.25        0.45           0          0          0          0     2.9483
        2.5        0.45           0          0          0          0     2.6703
       2.75        0.45           0          0          0          0     2.3969
          3        0.45           0          0          0          0      2.123
       3.25        0.45           0          0          0          0     1.8496
        3.5        0.45           0          0          0          0     1.5774
       3.75        0.45           0          0          0          0     1.3174
          4        0.45           0          0          0          0     1.0547
       4.25        0.45           0          0          0          0    0.74416
        4.5        0.45           0          0          0          0    0.48099
       4.75        0.45           0          0          0          0    0.28124
          5        0.45           0          0          0          0    0.37334
          0         0.5           0          0          0          0     5.4618
       0.25         0.5           0          0          0          0      5.216
        0.5         0.5           0          0          0          0     4.9702
       0.75         0.5           0          0          0          0     4.6703
          1         0.5           0          0          0          0     4.3703
       1.25         0.5           0          0          0          0      4.082
        1.5         0.5           0          0          0          0     3.7936
       1.75         0.5           0          0          0          0     3.5101
          2         0.5           0          0          0          0     3.2266
       2.25         0.5           0          0          0          0     2.9485
        2.5         0.5           0          0          0          0     2.6704
       2.75         0.5           0          0          0          0     2.3965
          3         0.5           0          0          0          0     2.1226
       3.25         0.5           0          0          0          0     1.8492
        3.5         0.5           0          0          0          0     1.5758
       3.75         0.5           0          0          0          0     1.3131
          4         0.5           0          0          0          0     1.0504
       4.25         0.5           0          0          0          0    0.73983
        4.5         0.5           0          0          0          0    0.42924
       4.75         0.5           0          0          0          0    0.52134
          5         0.5           0          0          0          0    0.61344
          0        0.55           0          0          0          0     5.4958
       0.25        0.55           0          0          0          0       5.25
        0.5        0.55           0          0          0          0     4.9637
       0.75        0.55           0          0          0          0     4.6687
          1        0.55           0          0          0          0     4.3687
       1.25        0.55           0          0          0          0     4.0804
        1.5        0.55           0          0          0          0     3.7932
       1.75        0.55           0          0          0          0     3.5099
          2        0.55           0          0          0          0     3.2264
       2.25        0.55           0          0          0          0     2.9483
        2.5        0.55           0          0          0          0     2.6703
       2.75        0.55           0          0          0          0     2.3969
          3        0.55           0          0          0          0      2.123
       3.25        0.55           0          0          0          0     1.8496
        3.5        0.55           0          0          0          0     1.5774
       3.75        0.55           0          0          0          0     1.3174
          4        0.55           0          0          0          0     1.0547
       4.25        0.55           0          0          0          0    0.74416
        4.5        0.55           0          0          0          0    0.48099
       4.75        0.55           0          0          0          0    0.28124
          5        0.55           0          0          0          0    0.37334
          0         0.6           0          0          0          0     5.5299
       0.25         0.6           0          0          0          0     5.2435
        0.5         0.6           0          0          0          0     4.9571
       0.75         0.6           0          0          0          0     4.6621
          1         0.6           0          0          0          0     4.3671
       1.25         0.6           0          0          0          0       4.08
        1.5         0.6           0          0          0          0     3.7928
       1.75         0.6           0          0          0          0     3.5095
          2         0.6           0          0          0          0     3.2262
       2.25         0.6           0          0          0          0     2.9482
        2.5         0.6           0          0          0          0     2.6703
       2.75         0.6           0          0          0          0     2.3968
          3         0.6           0          0          0          0     2.1234
       3.25         0.6           0          0          0          0     1.8512
        3.5         0.6           0          0          0          0      1.579
       3.75         0.6           0          0          0          0      1.319
          4         0.6           0          0          0          0     1.0591
       4.25         0.6           0          0          0          0    0.79591
        4.5         0.6           0          0          0          0    0.53275
       4.75         0.6           0          0          0          0    0.33299
          5         0.6           0          0          0          0    0.13324
          0        0.65           0          0          0          0      5.459
       0.25        0.65           0          0          0          0     5.2508
        0.5        0.65           0          0          0          0     4.9644
       0.75        0.65           0          0          0          0     4.6694
          1        0.65           0          0          0          0     4.3679
       1.25        0.65           0          0          0          0     4.0802
        1.5        0.65           0          0          0          0      3.793
       1.75        0.65           0          0          0          0     3.5097
          2        0.65           0          0          0          0      3.226
       2.25        0.65           0          0          0          0      2.948
        2.5        0.65           0          0          0          0     2.6701
       2.75        0.65           0          0          0          0     2.3966
          3        0.65           0          0          0          0     2.1228
       3.25        0.65           0          0          0          0     1.8497
        3.5        0.65           0          0          0          0     1.5775
       3.75        0.65           0          0          0          0     1.3175
          4        0.65           0          0          0          0     1.0543
       4.25        0.65           0          0          0          0      0.749
        4.5        0.65           0          0          0          0    0.48584
       4.75        0.65           0          0          0          0    0.28608
          5        0.65           0          0          0          0    0.34204
          0         0.7           0          0          0          0     5.3882
       0.25         0.7           0          0          0          0     5.1799
        0.5         0.7           0          0          0          0     4.9716
       0.75         0.7           0          0          0          0     4.6701
          1         0.7           0          0          0          0     4.3686
       1.25         0.7           0          0          0          0     4.0809
        1.5         0.7           0          0          0          0     3.7932
       1.75         0.7           0          0          0          0     3.5095
          2         0.7           0          0          0          0     3.2258
       2.25         0.7           0          0          0          0     2.9479
        2.5         0.7           0          0          0          0     2.6699
       2.75         0.7           0          0          0          0      2.396
          3         0.7           0          0          0          0     2.1221
       3.25         0.7           0          0          0          0     1.8491
        3.5         0.7           0          0          0          0      1.576
       3.75         0.7           0          0          0          0     1.3128
          4         0.7           0          0          0          0     1.0496
       4.25         0.7           0          0          0          0    0.74424
        4.5         0.7           0          0          0          0    0.43892
       4.75         0.7           0          0          0          0    0.49489
          5         0.7           0          0          0          0    0.55085
          0        0.75           0          0          0          0     5.4404
       0.25        0.75           0          0          0          0     5.2321
        0.5        0.75           0          0          0          0     4.9576
       0.75        0.75           0          0          0          0     4.6677
          1        0.75           0          0          0          0     4.3661
       1.25        0.75           0          0          0          0     4.0784
        1.5        0.75           0          0          0          0      3.792
       1.75        0.75           0          0          0          0     3.5088
          2        0.75           0          0          0          0     3.2251
       2.25        0.75           0          0          0          0     2.9471
        2.5        0.75           0          0          0          0     2.6694
       2.75        0.75           0          0          0          0      2.396
          3        0.75           0          0          0          0     2.1221
       3.25        0.75           0          0          0          0      1.849
        3.5        0.75           0          0          0          0     1.5774
       3.75        0.75           0          0          0          0     1.3154
          4        0.75           0          0          0          0     1.0522
       4.25        0.75           0          0          0          0    0.74688
        4.5        0.75           0          0          0          0    0.48576
       4.75        0.75           0          0          0          0     0.2811
          5        0.75           0          0          0          0    0.33706
          0         0.8           0          0          0          0     5.4926
       0.25         0.8           0          0          0          0     5.2181
        0.5         0.8           0          0          0          0     4.9436
       0.75         0.8           0          0          0          0     4.6536
          1         0.8           0          0          0          0     4.3637
       1.25         0.8           0          0          0          0     4.0772
        1.5         0.8           0          0          0          0     3.7908
       1.75         0.8           0          0          0          0     3.5076
          2         0.8           0          0          0          0     3.2243
       2.25         0.8           0          0          0          0     2.9466
        2.5         0.8           0          0          0          0     2.6689
       2.75         0.8           0          0          0          0     2.3955
          3         0.8           0          0          0          0     2.1221
       3.25         0.8           0          0          0          0     1.8504
        3.5         0.8           0          0          0          0     1.5787
       3.75         0.8           0          0          0          0     1.3168
          4         0.8           0          0          0          0     1.0548
       4.25         0.8           0          0          0          0    0.79371
        4.5         0.8           0          0          0          0    0.53259
       4.75         0.8           0          0          0          0    0.32793
          5         0.8           0          0          0          0    0.12327
          0        0.85           0          0          0          0      5.339
       0.25        0.85           0          0          0          0     5.2338
        0.5        0.85           0          0          0          0     4.9593
       0.75        0.85           0          0          0          0     4.6693
          1        0.85           0          0          0          0     4.3629
       1.25        0.85           0          0          0          0     4.0773
        1.5        0.85           0          0          0          0     3.7909
       1.75        0.85           0          0          0          0     3.5076
          2        0.85           0          0          0          0     3.2232
       2.25        0.85           0          0          0          0     2.9461
        2.5        0.85           0          0          0          0     2.6684
       2.75        0.85           0          0          0          0      2.395
          3        0.85           0          0          0          0     2.1209
       3.25        0.85           0          0          0          0     1.8485
        3.5        0.85           0          0          0          0     1.5769
       3.75        0.85           0          0          0          0     1.3149