<VTKFile type="unstructuredGrid" version="0.1" byte_order="BigEndian">
  <UnstructuredGrid>
    <Piece NumberOfPoints="8261" NumberOfCells="5000">
      <PointData Scalars="scalars">
        <DataArray type="Float64" Name="pressure" Format="ascii">
5.504293
5.181054
4.857814
4.604432
4.351050
4.054199
3.757347
3.487290
3.217232
2.931220
2.645208
2.381606
2.118004
1.841170
1.564336
1.311830
1.059325
0.825933
0.592542
0.364181
0.135821
5.344791
5.239651
4.916412
4.663030
4.356553
4.070992
3.774141
3.504083
3.219672
2.942553
2.656540
2.392938
2.118885
1.846497
1.569663
1.317157
1.052536
0.756584
0.523193
0.294832
0.268697
5.185288
5.080148
4.975009
4.668533
4.362056
4.076495
3.790934
3.506522
3.222111
2.944992
2.667873
2.393819
2.119765
1.847378
1.574990
1.310369
1.045747
0.749796
0.453844
0.427709
0.401574
5.338959
5.233819
4.959322
4.669335
4.362858
4.077297
3.790853
3.507638
3.223226
2.946108
2.668374
2.394966
2.120912
1.848524
1.576864
1.314910
1.050288
0.754337
0.493217
0.288556
0.262421
5.492629
5.218132
4.943635
4.653648
4.363660
4.077216
3.790773
3.507557
3.224342
2.946608
2.668875
2.395467
2.122059
1.850399
1.578738
1.316784
1.054829
0.793709
0.532589
0.327929
0.123269
5.440411
5.232139
4.957642
4.667654
4.366121
4.078412
3.791968
3.508752
3.225091
2.947103
2.669370
2.395962
2.122085
1.849042
1.577382
1.315427
1.052191
0.746877
0.485757
0.281097
0.337060
5.388192
5.179920
4.971648
4.670115
4.368581
4.080872
3.793163
3.509501
3.225839
2.947852
2.669865
2.395987
2.122110
1.849068
1.576025
1.312789
1.049553
0.744239
0.438924
0.494888
0.550851
5.459029
5.250757
4.964368
4.669393
4.367860
4.080151
3.792971
3.509671
3.226009
2.948022
2.670069
2.396628
2.122751
1.849708
1.577489
1.317550
1.054314
0.749000
0.485836
0.286081
0.342045
5.529866
5.243477
4.957088
4.662114
4.367139
4.079959
3.792779
3.509479
3.226179
2.948227
2.670274
2.396833
2.123391
1.851172
1.578953
1.319014
1.059075
0.795912
0.532748
0.332993
0.133238
5.495826
5.250039
4.963650
4.668676
4.368731
4.080391
3.793211
3.509911
3.226378
2.948266
2.670313
2.396872
2.123002
1.849578
1.577359
1.317419
1.054743
0.744157
0.480994
0.281239
0.373341
5.461787
5.216000
4.970213
4.670268
4.370323
4.081983
3.793643
3.510109
3.226576
2.948465
2.670353
2.396483
2.122613
1.849188
1.575764
1.313087
1.050411
0.739825
0.429239
0.521341
0.613444
5.495826
5.250039
4.963650
4.668676
4.368731
4.080391
3.793211
3.509911
3.226378
2.948266
2.670313
2.396872
2.123002
1.849578
1.577359
1.317419
1.054743
0.744157
0.480994
0.281239
0.373341
5.529866
5.243477
4.957088
4.662114
4.367139
4.079959
3.792779
3.509479
3.226179
2.948227
2.670274
2.396833
2.123391
1.851172
1.578953
1.319014
1.059075
0.795912
0.532748
0.332993
0.133238
5.459029
5.250757
4.964368
4.669393
4.367860
4.080151
3.792971
3.509671
3.226009
2.948022
2.670069
2.396628
2.122751
1.849708
1.577489
1.317550
1.054314
0.749000
0.485836
0.286081
0.342045
5.388192
5.179920
4.971648
4.670115
4.368581
4.080872
3.793163
3.509501
3.225839
2.947852
2.669865
2.395987
2.122110
1.849068
1.576025
1.312789
1.049553
0.744239
0.438924
0.494888
0.550851
5.440411
5.232139
4.957642
4.667654
4.366121
4.078412
3.791968
3.508752
3.225091
2.947103
2.669370
2.395962
2.122085
1.849042
1.577382
1.315427
1.052191
0.746877
0.485757
0.281097
0.337060
5.492629
5.218132
4.943635
4.653648
4.363660
4.077216
3.790773
3.507557
3.224342
2.946608
2.668875
2.395467
2.122059
1.850399
1.578738
1.316784
1.054829
0.793709
0.532589
0.327929
0.123269
5.338959
5.233819
4.959322
4.669335
4.362858
4.077297
3.790853
3.507638
3.223226
2.946108
2.668374
2.394966
2.120912
1.848524
1.576864
1.314910
1.050288
0.754337
0.493217
0.288556
0.262421
5.185288
5.080148
4.975009
4.668533
4.362056
4.076495
3.790934
3.506522
3.222111
2.944992
2.667873
2.393819
2.119765
1.847378
1.574990
1.310369
1.045747
0.749796
0.453844
0.427709
0.401574
5.344791
5.239651
4.916412
4.663030
4.356553
4.070992
3.774141
3.504083
3.219672
2.942553
2.656540
2.392938
2.118885
1.846497
1.569663
1.317157
1.052536
0.756584
0.523193
0.294832
0.268697
5.504293
5.181054
4.857814
4.604432
4.351050
4.054199
3.757347
3.487290
3.217232
2.931220
2.645208
2.381606
2.118004
1.841170
1.564336
1.311830
1.059325
0.825933
0.592542
0.364181
0.135821
5.344791
5.239651
4.916412
4.663030
4.356553
4.070992
3.774141
3.504083
3.219672
2.942553
2.656540
2.392938
2.118885
1.846497
1.569663
1.317157
1.052536
0.756584
0.523193
0.294832
0.268697
5.467424
4.975009
4.356869
3.790934
3.220516
2.667873
2.119621
1.574990
1.053343
0.453844
0.108676
5.307921
5.202782
4.964044
4.668849
4.362372
4.076811
3.789801
3.507367
3.222955
2.945836
2.667630
2.394555
2.120502
1.848114
1.577037
1.311176
1.046555
0.750603
0.494128
0.267687
0.241552
5.461592
4.972830
4.363174
3.791893
3.224071
2.668883
2.121648
1.576869
1.051096
0.471834
0.102400
5.427303
5.231640
4.957143
4.667155
4.365478
4.078257
3.791813
3.508597
3.224845
2.947118
2.669384
2.395976
2.121774
1.850404
1.578744
1.316789
1.048273
0.772327
0.511207
0.306547
0.113325
5.494154
4.971149
4.365975
3.793008
3.225423
2.669879
2.122363
1.577387
1.050632
0.464374
0.082958
5.441935
5.233663
4.965762
4.669968
4.368435
4.080726
3.793048
3.509834
3.226172
2.948185
2.670177
2.396266
2.122389
1.849346
1.578375
1.311230
1.047994
0.742679
0.481963
0.240786
0.296750
5.512772
4.968562
4.367714
3.793551
3.226342
2.670447
2.123029
1.577723
1.052755
0.464318
0.087943
5.509960
5.247671
4.961282
4.666308
4.369107
4.080539
3.793360
3.510059
3.226635
2.948604
2.670652
2.397210
2.122980
1.851406
1.579187
1.319248
1.049919
0.774394
0.511231
0.311475
0.114322
5.526592
4.967845
4.368678
3.793791
3.226744
2.670691
2.123295
1.577593
1.053246
0.459476
0.085975
5.492552
5.246765
4.967494
4.670215
4.370270
4.081930
3.793720
3.510476
3.226943
2.948831
2.670738
2.396776
2.122906
1.849482
1.578397
1.311591
1.048914
0.738329
0.476210
0.233975
0.326077
5.526592
4.967845
4.368678
3.793791
3.226744
2.670691
2.123295
1.577593
1.053246
0.459476
0.085975
5.509960
5.247671
4.961282
4.666308
4.369107
4.080539
3.793360
3.510059
3.226635
2.948604
2.670652
2.397210
2.122980
1.851406
1.579187
1.319248
1.049919
0.774394
0.511231
0.311475
0.114322
5.512772
4.968562
4.367714
3.793551
3.226342
2.670447
2.123029
1.577723
1.052755
0.464318
0.087943
5.441935
5.233663
4.965762
4.669968
4.368435
4.080726
3.793048
3.509834
3.226172
2.948185
2.670177
2.396266
2.122389
1.849346
1.578375
1.311230
1.047994
0.742679
0.481963
0.240786
0.296750
5.494154
4.971149
4.365975
3.793008
3.225423
2.669879
2.122363
1.577387
1.050632
0.464374
0.082958
5.427303
5.231640
4.957143
4.667155
4.365478
4.078257
3.791813
3.508597
3.224845
2.947118
2.669384
2.395976
2.121774
1.850404
1.578744
1.316789
1.048273
0.772327
0.511207
0.306547
0.113325
5.461592
4.972830
4.363174
3.791893
3.224071
2.668883
2.121648
1.576869
1.051096
0.471834
0.102400
5.307921
5.202782
4.964044
4.668849
4.362372
4.076811
3.789801
3.507367
3.222955
2.945836
2.667630
2.394555
2.120502
1.848114
1.577037
1.311176
1.046555
0.750603
0.494128
0.267687
0.241552
5.467424
4.975009
4.356869
3.790934
3.220516
2.667873
2.119621
1.574990
1.053343
0.453844
0.108676
5.344791
5.239651
4.916412
4.663030
4.356553
4.070992
3.774141
3.504083
3.219672
2.942553
2.656540
2.392938
2.118885
1.846497
1.569663
1.317157
1.052536
0.756584
0.523193
0.294832
0.268697
5.185288
5.080148
4.975009
4.668533
4.362056
4.076495
3.790934
3.506522
3.222111
2.944992
2.667873
2.393819
2.119765
1.847378
1.574990
1.310369
1.045747
0.749796
0.453844
0.427709
0.401574
5.307921
5.202782
4.964044
4.668849
4.362372
4.076811
3.789801
3.507367
3.222955
2.945836
2.667630
2.394555
2.120502
1.848114
1.577037
1.311176
1.046555
0.750603
0.494128
0.267687
0.241552
5.430555
5.191817
4.953080
4.657884
4.362688
4.075678
3.788668
3.506234
3.223800
2.945593
2.667387
2.394312
2.121237
1.850160
1.579083
1.313223
1.047362
0.790887
0.534411
0.307971
0.081531
5.396265
5.200602
4.961865
4.666669
4.364992
4.077770
3.790761
3.508326
3.224574
2.946847
2.668640
2.395565
2.121364
1.849993
1.578916
1.313055
1.044539
0.768593
0.512118
0.285678
0.092456
5.361976
5.166313
4.970650
4.668973
4.367296
4.080074
3.792853
3.509100
3.225347
2.947621
2.669893
2.395692
2.121490
1.850119
1.578749
1.310233
1.041717
0.765770
0.489824
0.296602
0.103380
5.428827
5.233164
4.965263
4.669470
4.367792
4.080571
3.792893
3.509678
3.225926
2.948199
2.670191
2.396281
2.122079
1.850708
1.579737
1.312592
1.044076
0.768129
0.507413
0.266236
0.073014
5.495678
5.227777
4.959876
4.664082
4.368289
4.080611
3.792933
3.509719
3.226504
2.948496
2.670488
2.396578
2.122667
1.851696
1.580725
1.313580
1.046435
0.785718
0.525002
0.283825
0.042648
5.492866
5.230577
4.962676
4.666883
4.369682
4.081114
3.793436
3.510222
3.226798
2.948767
2.670759
2.396849
2.122618
1.851044
1.580073
1.312928
1.043599
0.768074
0.507357
0.266180
0.069027
5.490054
5.227765
4.965477
4.668276
4.371075
4.082507
3.793940
3.510515
3.227091
2.949060
2.671030
2.396799
2.122569
1.850995
1.579421
1.310092
1.040763
0.765238
0.489713
0.292559
0.095405
5.506686
5.244397
4.965127
4.667847
4.370646
4.082079
3.793869
3.510624
3.227200
2.949169
2.671076
2.397114
2.122884
1.851310
1.580225
1.313420
1.044090
0.768565
0.506447
0.264212
0.067058
5.523318
5.244047
4.964776
4.667497
4.370217
4.082008
3.793798
3.510553
3.227309
2.949216
2.671123
2.397161
2.123199
1.852114
1.581029
1.314224
1.047418
0.785300
0.523181
0.280946
0.038711
5.506686
5.244397
4.965127
4.667847
4.370646
4.082079
3.793869
3.510624
3.227200
2.949169
2.671076
2.397114
2.122884
1.851310
1.580225
1.313420
1.044090
0.768565
0.506447
0.264212
0.067058
5.490054
5.227765
4.965477
4.668276
4.371075
4.082507
3.793940
3.510515
3.227091
2.949060
2.671030
2.396799
2.122569
1.850995
1.579421
1.310092
1.040763
0.765238
0.489713
0.292559
0.095405
5.492866
5.230577
4.962676
4.666883
4.369682
4.081114
3.793436
3.510222
3.226798
2.948767
2.670759
2.396849
2.122618
1.851044
1.580073
1.312928
1.043599
0.768074
0.507357
0.266180
0.069027
5.495678
5.227777
4.959876
4.664082
4.368289
4.080611
3.792933
3.509719
3.226504
2.948496
2.670488
2.396578
2.122667
1.851696
1.580725
1.313580
1.046435
0.785718
0.525002
0.283825
0.042648
5.428827
5.233164
4.965263
4.669470
4.367792
4.080571
3.792893
3.509678
3.225926
2.948199
2.670191
2.396281
2.122079
1.850708
1.579737
1.312592
1.044076
0.768129
0.507413
0.266236
0.073014
5.361976
5.166313
4.970650
4.668973
4.367296
4.080074
3.792853
3.509100
3.225347
2.947621
2.669893
2.395692
2.121490
1.850119
1.578749
1.310233
1.041717
0.765770
0.489824
0.296602
0.103380
5.396265
5.200602
4.961865
4.666669
4.364992
4.077770
3.790761
3.508326
3.224574
2.946847
2.668640
2.395565
2.121364
1.849993
1.578916
1.313055
1.044539
0.768593
0.512118
0.285678
0.092456
5.430555
5.191817
4.953080
4.657884
4.362688
4.075678
3.788668
3.506234
3.223800
2.945593
2.667387
2.394312
2.121237
1.850160
1.579083
1.313223
1.047362
0.790887
0.534411
0.307971
0.081531
5.307921
5.202782
4.964044
4.668849
4.362372
4.076811
3.789801
3.507367
3.222955
2.945836
2.667630
2.394555
2.120502
1.848114
1.577037
1.311176
1.046555
0.750603
0.494128
0.267687
0.241552
5.185288
5.080148
4.975009
4.668533
4.362056
4.076495
3.790934
3.506522
3.222111
2.944992
2.667873
2.393819
2.119765
1.847378
1.574990
1.310369
1.045747
0.749796
0.453844
0.427709
0.401574
5.338959
5.233819
4.959322
4.669335
4.362858
4.077297
3.790853
3.507638
3.223226
2.946108
2.668374
2.394966
2.120912
1.848524
1.576864
1.314910
1.050288
0.754337
0.493217
0.288556
0.262421
5.461592
4.972830
4.363174
3.791893
3.224071
2.668883
2.121648
1.576869
1.051096
0.471834
0.102400
5.396265
5.200602
4.961865
4.666669
4.364992
4.077770
3.790761
3.508326
3.224574
2.946847
2.668640
2.395565
2.121364
1.849993
1.578916
1.313055
1.044539
0.768593
0.512118
0.285678
0.092456
5.463831
4.970650
4.365664
3.792853
3.225163
2.669893
2.121784
1.578749
1.044796
0.489824
0.035959
5.429542
5.233879
4.962561
4.669645
4.367968
4.080746
3.792779
3.509689
3.225936
2.948209
2.670129
2.396112
2.121910
1.850540
1.579706
1.310489
1.041973
0.766027
0.503374
0.240106
0.046884
5.496393
4.966363
4.368464
3.793371
3.226515
2.670612
2.122499
1.580086
1.044332
0.501206
0.016518
5.508619
5.228877
4.960976
4.665183
4.369927
4.081089
3.793412
3.510197
3.226866
2.948918
2.670910
2.396999
2.122634
1.852046
1.581074
1.313929
1.043160
0.779511
0.518795
0.277618
-0.017052
5.516717
4.963777
4.370356
3.793915
3.227248
2.671181
2.122839
1.580422
1.043828
0.501150
-0.000411
5.513904
5.251616
4.965627
4.668950
4.371749
4.083182
3.794093
3.510966
3.227541
2.949511
2.671255
2.397020
2.122790
1.851215
1.580178
1.310321
1.040992
0.765467
0.494332
0.223122
0.025968
5.530536
4.962111
4.371321
3.794045
3.227650
2.671405
2.123104
1.580602
1.044320
0.501784
-0.002379
5.562957
5.241032
4.961761
4.664482
4.371663
4.082184
3.793974
3.510730
3.227631
2.949545
2.671452
2.397490
2.123129
1.852491
1.581406
1.314601
1.043478
0.780637
0.518519
0.276284
-0.032402
5.530536
4.962111
4.371321
3.794045
3.227650
2.671405
2.123104
1.580602
1.044320
0.501784
-0.002379
5.513904
5.251616
4.965627
4.668950
4.371749
4.083182
3.794093
3.510966
3.227541
2.949511
2.671255
2.397020
2.122790
1.851215
1.580178
1.310321
1.040992
0.765467
0.494332
0.223122
0.025968
5.516717
4.963777
4.370356
3.793915
3.227248
2.671181
2.122839
1.580422
1.043828
0.501150
-0.000411
5.508619
5.228877
4.960976
4.665183
4.369927
4.081089
3.793412
3.510197
3.226866
2.948918
2.670910
2.396999
2.122634
1.852046
1.581074
1.313929
1.043160
0.779511
0.518795
0.277618
-0.017052
5.496393
4.966363
4.368464
3.793371
3.226515
2.670612
2.122499
1.580086
1.044332
0.501206
0.016518
5.429542
5.233879
4.962561
4.669645
4.367968
4.080746
3.792779
3.509689
3.225936
2.948209
2.670129
2.396112
2.121910
1.850540
1.579706
1.310489
1.041973
0.766027
0.503374
0.240106
0.046884
5.463831
4.970650
4.365664
3.792853
3.225163
2.669893
2.121784
1.578749
1.044796
0.489824
0.035959
5.396265
5.200602
4.961865
4.666669
4.364992
4.077770
3.790761
3.508326
3.224574
2.946847
2.668640
2.395565
2.121364
1.849993
1.578916
1.313055
1.044539
0.768593
0.512118
0.285678
0.092456
5.461592
4.972830
4.363174
3.791893
3.224071
2.668883
2.121648
1.576869
1.051096
0.471834
0.102400
5.338959
5.233819
4.959322
4.669335
4.362858
4.077297
3.790853
3.507638
3.223226
2.946108
2.668374
2.394966
2.120912
1.848524
1.576864
1.314910
1.050288
0.754337
0.493217
0.288556
0.262421
5.492629
5.218132
4.943635
4.653648
4.363660
4.077216
3.790773
3.507557
3.224342
2.946608
2.668875
2.395467
2.122059
1.850399
1.578738
1.316784
1.054829
0.793709
0.532589
0.327929
0.123269
5.427303
5.231640
4.957143
4.667155
4.365478
4.078257
3.791813
3.508597
3.224845
2.947118
2.669384
2.395976
2.121774
1.850404
1.578744
1.316789
1.048273
0.772327
0.511207
0.306547
0.113325
5.361976
5.166313
4.970650
4.668973
4.367296
4.080074
3.792853
3.509100
3.225347
2.947621
2.669893
2.395692
2.121490
1.850119
1.578749
1.310233
1.041717
0.765770
0.489824
0.296602
0.103380
5.429542
5.233879
4.962561
4.669645
4.367968
4.080746
3.792779
3.509689
3.225936
2.948209
2.670129
2.396112
2.121910
1.850540
1.579706
1.310489
1.041973
0.766027
0.503374
0.240106
0.046884
5.497107
5.225790
4.954472
4.661556
4.368640
4.080673
3.792705
3.509615
3.226525
2.948445
2.670365
2.396348
2.122330
1.851497
1.580663
1.311447
1.042230
0.779577
0.516924
0.253656
-0.009613
5.509334
5.229592
4.958274
4.665358
4.370102
4.081265
3.793298
3.510208
3.226876
2.948928
2.670848
2.396831
2.122466
1.851877
1.581043
1.311827
1.041057
0.777409
0.514756
0.251488
-0.043182
5.521560
5.241818
4.962076
4.666821
4.371565
4.082727
3.793890
3.510558
3.227227
2.949279
2.671331
2.396966
2.122600
1.852012
1.581423
1.310654
1.039885
0.776236
0.512588
0.217918
-0.076752
5.529657
5.249916
4.963927
4.667250
4.371994
4.083157
3.794068
3.510941
3.227609
2.949661
2.671406
2.397171
2.122805
1.852217
1.581179
1.311323
1.040553
0.776905
0.505770
0.234559
-0.060110
5.537755
5.251766
4.965777
4.669100
4.372424
4.083335
3.794246
3.511119
3.227992
2.949736
2.671480
2.397245
2.123010
1.851972
1.580934
1.311078
1.041222
0.770087
0.498952
0.227742
-0.043469
5.570175
5.248251
4.962262
4.665585
4.372766
4.083287
3.794198
3.511071
3.227972
2.949886
2.671630
2.397395
2.123034
1.852397
1.581359
1.311503
1.040380
0.777539
0.506404
0.235194
-0.073492
5.602595
5.280671
4.958746
4.665927
4.373108
4.083629
3.794150
3.511051
3.227953
2.949867
2.671781
2.397420
2.123058
1.852421
1.581784
1.310661
1.039538
0.776697
0.513856
0.205171
-0.103515
5.570175
5.248251
4.962262
4.665585
4.372766
4.083287
3.794198
3.511071
3.227972
2.949886
2.671630
2.397395
2.123034
1.852397
1.581359
1.311503
1.040380
0.777539
0.506404
0.235194
-0.073492
5.537755
5.251766
4.965777
4.669100
4.372424
4.083335
3.794246
3.511119
3.227992
2.949736
2.671480
2.397245
2.123010
1.851972
1.580934
1.311078
1.041222
0.770087
0.498952
0.227742
-0.043469
5.529657
5.249916
4.963927
4.667250
4.371994
4.083157
3.794068
3.510941
3.227609
2.949661
2.671406
2.397171
2.122805
1.852217
1.581179
1.311323
1.040553
0.776905
0.505770
0.234559
-0.060110
5.521560
5.241818
4.962076
4.666821
4.371565
4.082727
3.793890
3.510558
3.227227
2.949279
2.671331
2.396966
2.122600
1.852012
1.581423
1.310654
1.039885
0.776236
0.512588
0.217918
-0.076752
5.509334
5.229592
4.958274
4.665358
4.370102
4.081265
3.793298
3.510208
3.226876
2.948928
2.670848
2.396831
2.122466
1.851877
1.581043
1.311827
1.041057
0.777409
0.514756
0.251488
-0.043182
5.497107
5.225790
4.954472
4.661556
4.368640
4.080673
3.792705
3.509615
3.226525
2.948445
2.670365
2.396348
2.122330
1.851497
1.580663
1.311447
1.042230
0.779577
0.516924
0.253656
-0.009613
5.429542
5.233879
4.962561
4.669645
4.367968
4.080746
3.792779
3.509689
3.225936
2.948209
2.670129
2.396112
2.121910
1.850540
1.579706
1.310489
1.041973
0.766027
0.503374
0.240106
0.046884
5.361976
5.166313
4.970650
4.668973
4.367296
4.080074
3.792853
3.509100
3.225347
2.947621
2.669893
2.395692
2.121490
1.850119
1.578749
1.310233
1.041717
0.765770
0.489824
0.296602
0.103380
5.427303
5.231640
4.957143
4.667155
4.365478
4.078257
3.791813
3.508597
3.224845
2.947118
2.669384
2.395976
2.121774
1.850404
1.578744
1.316789
1.048273
0.772327
0.511207
0.306547
0.113325
5.492629
5.218132
4.943635
4.653648
4.363660
4.077216
3.790773
3.507557
3.224342
2.946608
2.668875
2.395467
2.122059
1.850399
1.578738
1.316784
1.054829
0.793709
0.532589
0.327929
0.123269
5.440411
5.232139
4.957642
4.667654
4.366121
4.078412
3.791968
3.508752
3.225091
2.947103
2.669370
2.395962
2.122085
1.849042
1.577382
1.315427
1.052191
0.746877
0.485757
0.281097
0.337060
5.494154
4.971149
4.365975
3.793008
3.225423
2.669879
2.122363
1.577387
1.050632
0.464374
0.082958
5.428827
5.233164
4.965263
4.669470
4.367792
4.080571
3.792893
3.509678
3.225926
2.948199
2.670191
2.396281
2.122079
1.850708
1.579737
1.312592
1.044076
0.768129
0.507413
0.266236
0.073014
5.496393
4.966363
4.368464
3.793371
3.226515
2.670612
2.122499
1.580086
1.044332
0.501206
0.016518
5.509334
5.229592
4.958274
4.665358
4.370102
4.081265
3.793298
3.510208
3.226876
2.948928
2.670848
2.396831
2.122466
1.851877
1.581043
1.311827
1.041057
0.777409
0.514756
0.251488
-0.043182
5.518476
4.962076
4.370914
3.793890
3.227379
2.671331
2.122641
1.581423
1.040985
0.512588
-0.034636
5.530702
5.250960
4.964974
4.667633
4.372377
4.083539
3.794113
3.511061
3.227730
2.949782
2.671435
2.397141
2.122776
1.852187
1.581022
1.310582
1.039813
0.776164
0.498694
0.226464
-0.068205
5.538799
4.958223
4.372806
3.793983
3.228112
2.671710
2.122980
1.582070
1.040482
0.519215
-0.051564
5.605763
5.246062
4.960074
4.663397
4.373336
4.083250
3.794161
3.511034
3.228177
2.950040
2.671784
2.397549
2.123189
1.852863
1.581826
1.311969
1.039939
0.783532
0.512397
0.241187
-0.116354
5.550455
4.956558
4.373802
3.794113
3.228475
2.671935
2.123158
1.582250
1.040456
0.519849
-0.060766
5.582876
5.260951
4.966338
4.666963
4.374145
4.084665
3.794517
3.511554
3.228455
2.950369
2.671863
2.397543
2.123182
1.852545
1.581129
1.310736
1.039614
0.776773
0.492296
0.217897
-0.090789
5.550455
4.956558
4.373802
3.794113
3.228475
2.671935
2.123158
1.582250
1.040456
0.519849
-0.060766
5.605763
5.246062
4.960074
4.663397
4.373336
4.083250
3.794161
3.511034
3.228177
2.950040
2.671784
2.397549
2.123189
1.852863
1.581826
1.311969
1.039939
0.783532
0.512397
0.241187
-0.116354
5.538799
4.958223
4.372806
3.793983
3.228112
2.671710
2.122980
1.582070
1.040482
0.519215
-0.051564
5.530702
5.250960
4.964974
4.667633
4.372377
4.083539
3.794113
3.511061
3.227730
2.949782
2.671435
2.397141
2.122776
1.852187
1.581022
1.310582
1.039813
0.776164
0.498694
0.226464
-0.068205
5.518476
4.962076
4.370914
3.793890
3.227379
2.671331
2.122641
1.581423
1.040985
0.512588
-0.034636
5.509334
5.229592
4.958274
4.665358
4.370102
4.081265
3.793298
3.510208
3.226876
2.948928
2.670848
2.396831
2.122466
1.851877
1.581043
1.311827
1.041057
0.777409
0.514756
0.251488
-0.043182
5.496393
4.966363
4.368464
3.793371
3.226515
2.670612
2.122499
1.580086
1.044332
0.501206
0.016518
5.428827
5.233164
4.965263
4.669470
4.367792
4.080571
3.792893
3.509678
3.225926
2.948199
2.670191
2.396281
2.122079
1.850708
1.579737
1.312592
1.044076
0.768129
0.507413
0.266236
0.073014
5.494154
4.971149
4.365975
3.793008
3.225423
2.669879
2.122363
1.577387
1.050632
0.464374
0.082958
5.440411
5.232139
4.957642
4.667654
4.366121
4.078412
3.791968
3.508752
3.225091
2.947103
2.669370
2.395962
2.122085
1.849042
1.577382
1.315427
1.052191
0.746877
0.485757
0.281097
0.337060
5.388192
5.179920
4.971648
4.670115
4.368581
4.080872
3.793163
3.509501
3.225839
2.947852
2.669865
2.395987
2.122110
1.849068
1.576025
1.312789
1.049553
0.744239
0.438924
0.494888
0.550851
5.441935
5.233663
4.965762
4.669968
4.368435
4.080726
3.793048
3.509834
3.226172
2.948185
2.670177
2.396266
2.122389
1.849346
1.578375
1.311230
1.047994
0.742679
0.481963
0.240786
0.296750
5.495678
5.227777
4.959876
4.664082
4.368289
4.080611
3.792933
3.509719
3.226504
2.948496
2.670488
2.396578
2.122667
1.851696
1.580725
1.313580
1.046435
0.785718
0.525002
0.283825
0.042648
5.508619
5.228877
4.960976
4.665183
4.369927
4.081089
3.793412
3.510197
3.226866
2.948918
2.670910
2.396999
2.122634
1.852046
1.581074
1.313929
1.043160
0.779511
0.518795
0.277618
-0.017052
5.521560
5.241818
4.962076
4.666821
4.371565
4.082727
3.793890
3.510558
3.227227
2.949279
2.671331
2.396966
2.122600
1.852012
1.581423
1.310654
1.039885
0.776236
0.512588
0.217918
-0.076752
5.530702
5.250960
4.964974
4.667633
4.372377
4.083539
3.794113
3.511061
3.227730
2.949782
2.671435
2.397141
2.122776
1.852187
1.581022
1.310582
1.039813
0.776164
0.498694
0.226464
-0.068205
5.539844
5.253858
4.967872
4.670530
4.373189
4.083762
3.794336
3.511284
3.228233
2.949886
2.671540
2.397245
2.122951
1.851786
1.580621
1.310181
1.039741
0.762270
0.484799
0.212570
-0.059659
5.606808
5.247107
4.961121
4.663780
4.373719
4.083633
3.794206
3.511155
3.228297
2.950161
2.671814
2.397520
2.123159
1.852834
1.581669
1.311229
1.039199
0.782792
0.505321
0.233092
-0.124449
5.673771
5.314071
4.954370
4.664309
4.374248
4.084163
3.794077
3.511219
3.228362
2.950225
2.672089
2.397728
2.123368
1.853042
1.582717
1.310686
1.038656
0.782249
0.525842
0.168302
-0.189239
5.618464
5.258763
4.964150
4.664776
4.374714
4.084629
3.794481
3.511518
3.228660
2.950524
2.672017
2.397697
2.123336
1.853011
1.581595
1.311203
1.039173
0.782766
0.498289
0.223890
-0.133651
5.563156
5.268543
4.973929
4.674555
4.375181
4.085033
3.794885
3.511921
3.228958
2.950451
2.671945
2.397625
2.123305
1.851889
1.580474
1.310081
1.039689
0.755212
0.470735
0.196336
-0.078063
5.618464
5.258763
4.964150
4.664776
4.374714
4.084629
3.794481
3.511518
3.228660
2.950524
2.672017
2.397697
2.123336
1.853011
1.581595
1.311203
1.039173
0.782766
0.498289
0.223890
-0.133651
5.673771
5.314071
4.954370
4.664309
4.374248
4.084163
3.794077
3.511219
3.228362
2.950225
2.672089
2.397728
2.123368
1.853042
1.582717
1.310686
1.038656
0.782249
0.525842
0.168302
-0.189239
5.606808
5.247107
4.961121
4.663780
4.373719
4.083633
3.794206
3.511155
3.228297
2.950161
2.671814
2.397520
2.123159
1.852834
1.581669
1.311229
1.039199
0.782792
0.505321
0.233092
-0.124449
5.539844
5.253858
4.967872
4.670530
4.373189
4.083762
3.794336
3.511284
3.228233
2.949886
2.671540
2.397245
2.122951
1.851786
1.580621
1.310181
1.039741
0.762270
0.484799
0.212570
-0.059659
5.530702
5.250960
4.964974
4.667633
4.372377
4.083539
3.794113
3.511061
3.227730
2.949782
2.671435
2.397141
2.122776
1.852187
1.581022
1.310582
1.039813
0.776164
0.498694
0.226464
-0.068205
5.521560
5.241818
4.962076
4.666821
4.371565
4.082727
3.793890
3.510558
3.227227
2.949279
2.671331
2.396966
2.122600
1.852012
1.581423
1.310654
1.039885
0.776236
0.512588
0.217918
-0.076752
5.508619
5.228877
4.960976
4.665183
4.369927
4.081089
3.793412
3.510197
3.226866
2.948918
2.670910
2.396999
2.122634
1.852046
1.581074
1.313929
1.043160
0.779511
0.518795
0.277618
-0.017052
5.495678
5.227777
4.959876
4.664082
4.368289
4.080611
3.792933
3.509719
3.226504
2.948496
2.670488
2.396578
2.122667
1.851696
1.580725
1.313580
1.046435
0.785718
0.525002
0.283825
0.042648
5.441935
5.233663
4.965762
4.669968
4.368435
4.080726
3.793048
3.509834
3.226172
2.948185
2.670177
2.396266
2.122389
1.849346
1.578375
1.311230
1.047994
0.742679
0.481963
0.240786
0.296750
5.388192
5.179920
4.971648
4.670115
4.368581
4.080872
3.793163
3.509501
3.225839
2.947852
2.669865
2.395987
2.122110
1.849068
1.576025
1.312789
1.049553
0.744239
0.438924
0.494888
0.550851
5.459029
5.250757
4.964368
4.669393
4.367860
4.080151
3.792971
3.509671
3.226009
2.948022
2.670069
2.396628
2.122751
1.849708
1.577489
1.317550
1.054314
0.749000
0.485836
0.286081
0.342045
5.512772
4.968562
4.367714
3.793551
3.226342
2.670447
2.123029
1.577723
1.052755
0.464318
0.087943
5.492866
5.230577
4.962676
4.666883
4.369682
4.081114
3.793436
3.510222
3.226798
2.948767
2.670759
2.396849
2.122618
1.851044
1.580073
1.312928
1.043599
0.768074
0.507357
0.266180
0.069027
5.516717
4.963777
4.370356
3.793915
3.227248
2.671181
2.122839
1.580422
1.043828
0.501150
-0.000411
5.529657
5.249916
4.963927
4.667250
4.371994
4.083157
3.794068
3.510941
3.227609
2.949661
2.671406
2.397171
2.122805
1.852217
1.581179
1.311323
1.040553
0.776905
0.505770
0.234559
-0.060110
5.538799
4.958223
4.372806
3.793983
3.228112
2.671710
2.122980
1.582070
1.040482
0.519215
-0.051564
5.606808
5.247107
4.961121
4.663780
4.373719
4.083633
3.794206
3.511155
3.228297
2.950161
2.671814
2.397520
2.123159
1.852834
1.581669
1.311229
1.039199
0.782792
0.505321
0.233092
-0.124449
5.556631
4.954370
4.374685
3.794077
3.228764
2.672089
2.123196
1.582717
1.039552
0.525842
-0.075065
5.623594
5.263894
4.965446
4.665276
4.375215
4.085129
3.794557
3.511687
3.228829
2.950693
2.672080
2.397765
2.123404
1.853079
1.581502
1.311039
1.039009
0.782602
0.493209
0.217686
-0.139855
5.568286
4.952426
4.375681
3.794047
3.229127
2.672232
2.123373
1.582876
1.039526
0.527783
-0.084266
5.659219
5.256818
4.962205
4.662831
4.375304
4.084599
3.794451
3.511488
3.228925
2.950667
2.672160
2.397840
2.123531
1.853170
1.581754
1.311362
1.038993
0.784706
0.500229
0.225830
-0.159299
5.568286
4.952426
4.375681
3.794047
3.229127
2.672232
2.123373
1.582876
1.039526
0.527783
-0.084266
5.623594
5.263894
4.965446
4.665276
4.375215
4.085129
3.794557
3.511687
3.228829
2.950693
2.672080
2.397765
2.123404
1.853079
1.581502
1.311039
1.039009
0.782602
0.493209
0.217686
-0.139855
5.556631
4.954370
4.374685
3.794077
3.228764
2.672089
2.123196
1.582717
1.039552
0.525842
-0.075065
5.606808
5.247107
4.961121
4.663780
4.373719
4.083633
3.794206
3.511155
3.228297
2.950161
2.671814
2.397520
2.123159
1.852834
1.581669
1.311229
1.039199
0.782792
0.505321
0.233092
-0.124449
5.538799
4.958223
4.372806
3.793983
3.228112
2.671710
2.122980
1.582070
1.040482
0.519215
-0.051564
5.529657
5.249916
4.963927
4.667250
4.371994
4.083157
3.794068
3.510941
3.227609
2.949661
2.671406
2.397171
2.122805
1.852217
1.581179
1.311323
1.040553
0.776905
0.505770
0.234559
-0.060110
5.516717
4.963777
4.370356
3.793915
3.227248
2.671181
2.122839
1.580422
1.043828
0.501150
-0.000411
5.492866
5.230577
4.962676
4.666883
4.369682
4.081114
3.793436
3.510222
3.226798
2.948767
2.670759
2.396849
2.122618
1.851044
1.580073
1.312928
1.043599
0.768074
0.507357
0.266180
0.069027
5.512772
4.968562
4.367714
3.793551
3.226342
2.670447
2.123029
1.577723
1.052755
0.464318
0.087943
5.459029
5.250757
4.964368
4.669393
4.367860
4.080151
3.792971
3.509671
3.226009
2.948022
2.670069
2.396628
2.122751
1.849708
1.577489
1.317550
1.054314
0.749000
0.485836
0.286081
0.342045
5.529866
5.243477
4.957088
4.662114
4.367139
4.079959
3.792779
3.509479
3.226179
2.948227
2.670274
2.396833
2.123391
1.851172
1.578953
1.319014
1.059075
0.795912
0.532748
0.332993
0.133238
5.509960
5.247671
4.961282
4.666308
4.369107
4.080539
3.793360
3.510059
3.226635
2.948604
2.670652
2.397210
2.122980
1.851406
1.579187
1.319248
1.049919
0.774394
0.511231
0.311475
0.114322
5.490054
5.227765
4.965477
4.668276
4.371075
4.082507
3.793940
3.510515
3.227091
2.949060
2.671030
2.396799
2.122569
1.850995
1.579421
1.310092
1.040763
0.765238
0.489713
0.292559
0.095405
5.513904
5.251616
4.965627
4.668950
4.371749
4.083182
3.794093
3.510966
3.227541
2.949511
2.671255
2.397020
2.122790
1.851215
1.580178
1.310321
1.040992
0.765467
0.494332
0.223122
0.025968
5.537755
5.251766
4.965777
4.669100
4.372424
4.083335
3.794246
3.511119
3.227992
2.949736
2.671480
2.397245
2.123010
1.851972
1.580934
1.311078
1.041222
0.770087
0.498952
0.227742
-0.043469
5.605763
5.246062
4.960074
4.663397
4.373336
4.083250
3.794161
3.511034
3.228177
2.950040
2.671784
2.397549
2.123189
1.852863
1.581826
1.311969
1.039939
0.783532
0.512397
0.241187
-0.116354
5.673771
5.314071
4.954370
4.664309
4.374248
4.084163
3.794077
3.511219
3.228362
2.950225
2.672089
2.397728
2.123368
1.853042
1.582717
1.310686
1.038656
0.782249
0.525842
0.168302
-0.189239
5.623594
5.263894
4.965446
4.665276
4.375215
4.085129
3.794557
3.511687
3.228829
2.950693
2.672080
2.397765
2.123404
1.853079
1.581502
1.311039
1.039009
0.782602
0.493209
0.217686
-0.139855
5.573417
5.274969